 Entering Gaussian System, Link 0=/sw/linux/gaussian/g16/g16/g16
 Initial command:
 /sw/linux/gaussian/g16/g16/l1.exe "//usr/scratch/sarkara/76635/Gau-2624462.inp" -scrdir="//usr/scratch/sarkara/76635/"
 Entering Link 1 = /sw/linux/gaussian/g16/g16/l1.exe PID=   2624465.
  
 Copyright (c) 1988-2017, Gaussian, Inc.  All Rights Reserved.
  
 This is part of the Gaussian(R) 16 program.  It is based on
 the Gaussian(R) 09 system (copyright 2009, Gaussian, Inc.),
 the Gaussian(R) 03 system (copyright 2003, Gaussian, Inc.),
 the Gaussian(R) 98 system (copyright 1998, Gaussian, Inc.),
 the Gaussian(R) 94 system (copyright 1995, Gaussian, Inc.),
 the Gaussian 92(TM) system (copyright 1992, Gaussian, Inc.),
 the Gaussian 90(TM) system (copyright 1990, Gaussian, Inc.),
 the Gaussian 88(TM) system (copyright 1988, Gaussian, Inc.),
 the Gaussian 86(TM) system (copyright 1986, Carnegie Mellon
 University), and the Gaussian 82(TM) system (copyright 1983,
 Carnegie Mellon University). Gaussian is a federally registered
 trademark of Gaussian, Inc.
  
 This software contains proprietary and confidential information,
 including trade secrets, belonging to Gaussian, Inc.
  
 This software is provided under written license and may be
 used, copied, transmitted, or stored only in accord with that
 written license.
  
 The following legend is applicable only to US Government
 contracts under FAR:
  
                    RESTRICTED RIGHTS LEGEND
  
 Use, reproduction and disclosure by the US Government is
 subject to restrictions as set forth in subparagraphs (a)
 and (c) of the Commercial Computer Software - Restricted
 Rights clause in FAR 52.227-19.
  
 Gaussian, Inc.
 340 Quinnipiac St., Bldg. 40, Wallingford CT 06492
  
  
 ---------------------------------------------------------------
 Warning -- This program may not be used in any manner that
 competes with the business of Gaussian, Inc. or will provide
 assistance to any competitor of Gaussian, Inc.  The licensee
 of this program is prohibited from giving any competitor of
 Gaussian, Inc. access to this program.  By using this program,
 the user acknowledges that Gaussian, Inc. is engaged in the
 business of creating and licensing software in the field of
 computational chemistry and represents and warrants to the
 licensee that it is not a competitor of Gaussian, Inc. and that
 it will not use this program in any manner prohibited above.
 ---------------------------------------------------------------
  

 Cite this work as:
 Gaussian 16, Revision B.01,
 M. J. Frisch, G. W. Trucks, H. B. Schlegel, G. E. Scuseria, 
 M. A. Robb, J. R. Cheeseman, G. Scalmani, V. Barone, 
 G. A. Petersson, H. Nakatsuji, X. Li, M. Caricato, A. V. Marenich, 
 J. Bloino, B. G. Janesko, R. Gomperts, B. Mennucci, H. P. Hratchian, 
 J. V. Ortiz, A. F. Izmaylov, J. L. Sonnenberg, D. Williams-Young, 
 F. Ding, F. Lipparini, F. Egidi, J. Goings, B. Peng, A. Petrone, 
 T. Henderson, D. Ranasinghe, V. G. Zakrzewski, J. Gao, N. Rega, 
 G. Zheng, W. Liang, M. Hada, M. Ehara, K. Toyota, R. Fukuda, 
 J. Hasegawa, M. Ishida, T. Nakajima, Y. Honda, O. Kitao, H. Nakai, 
 T. Vreven, K. Throssell, J. A. Montgomery, Jr., J. E. Peralta, 
 F. Ogliaro, M. J. Bearpark, J. J. Heyd, E. N. Brothers, K. N. Kudin, 
 V. N. Staroverov, T. A. Keith, R. Kobayashi, J. Normand, 
 K. Raghavachari, A. P. Rendell, J. C. Burant, S. S. Iyengar, 
 J. Tomasi, M. Cossi, J. M. Millam, M. Klene, C. Adamo, R. Cammi, 
 J. W. Ochterski, R. L. Martin, K. Morokuma, O. Farkas, 
 J. B. Foresman, and D. J. Fox, Gaussian, Inc., Wallingford CT, 2016.
 
 ******************************************
 Gaussian 16:  ES64L-G16RevB.01 20-Dec-2017
                26-Apr-2024 
 ******************************************
 %mem=32gb
 %NProcShared=32
 Will use up to   32 processors via shared memory.
 %chk=/data/bee8/sarkara/work/sunita/Sol_OO_TS.chk
 ----------------------------------------------------------------------
 #p ub3lyp/def2tzvp EmpiricalDispersion=GD3 gfinput gfoldprint scfcyc=1
 000 scf=xqc scrf=(pcm,Solvent=Acetonitrile)
 ----------------------------------------------------------------------
 1/38=1,172=1/1;
 2/12=2,17=6,18=5,40=1/2;
 3/5=44,7=101,11=2,24=11,25=1,30=1,70=2201,72=2,74=-5,116=2,124=31/1,2,3;
 4//1;
 5/5=2,7=1000,8=3,13=1,38=5,53=2/2,8;
 6/7=2,8=2,9=2,10=2,28=1/1;
 99/5=1,9=1/99;
 Leave Link    1 at Fri Apr 26 10:11:06 2024, MaxMem=  4294967296 cpu:               1.4 elap:               0.0
 (Enter /sw/linux/gaussian/g16/g16/l101.exe)
 -----
 title
 -----
 Symbolic Z-matrix:
 Charge =  2 Multiplicity = 1
 Ru                   -2.41665   0.00423   0.52307 
 P                    -4.79914   1.03971   0.12141 
 O                    -1.81163   1.27091  -0.9553 
 O                    -0.75433  -0.40458   0.93898 
 O                    -3.96166  -2.59999  -2.80433 
 O                    -3.05837  -1.33489  -0.76461 
 N                    -3.06294  -1.0967    2.10489 
 O                    -0.72418   2.29718  -3.05837 
 N                    -2.19182   1.46979   1.93995 
 C                    -3.62829  -2.2555    2.044 
 H                    -3.90299  -2.74761   2.9805 
 C                    -0.99718   2.24571  -0.72113 
 C                    -3.70303  -2.45028  -0.48107 
 C                    -4.18951  -3.18667  -1.60821 
 C                    -3.96438  -2.96042   0.82821 
 C                    -6.67185  -0.97191  -0.4681 
 H                    -6.48286  -0.73638  -1.51036 
 C                    -6.31818   2.74532   1.84632 
 H                    -7.04622   1.94827   1.95114 
 C                    -7.77477  -2.3407    1.19761 
 H                    -8.44361  -3.15815   1.44968 
 C                     0.59716   3.83929  -1.72222 
 H                     1.09121   4.25792  -2.59162 
 C                    -6.30341  -0.55036   1.88836 
 H                    -5.82499   0.01015   2.68653 
 C                    -7.1681   -1.5941    2.21212 
 H                    -7.36853  -1.82607   3.25442 
 C                    -6.05635  -0.21807   0.5437 
 C                    -1.35642   2.44627   1.7913 
 H                    -1.1294    3.05546   2.67061 
 C                    -0.33962   2.82593  -1.87414 
 C                    -6.01185   2.46251  -1.96855 
 H                    -6.55889   2.9834   -1.18893 
 C                    -7.5227   -2.02825  -0.13887 
 H                    -7.99139  -2.60512  -0.9304 
 C                    -4.83679  -4.40754  -1.42577 
 H                    -5.18776  -4.97277  -2.28103 
 C                    -5.18416   2.57261   1.03889 
 C                    -4.35804   0.81621  -2.65409 
 H                    -3.62594   0.05764  -2.4142 
 C                    -4.64231  -4.18977   0.97308 
 H                    -4.84588  -4.56536   1.97179 
 C                    -2.80204   1.08431   3.21257 
 H                    -3.85688   1.38288   3.1896 
 H                    -2.32113   1.5924    4.05644 
 C                    -6.25328   2.77649  -3.30498 
 H                    -6.9882    3.53613  -3.55459 
 C                    -5.06475   1.47764  -1.63602 
 C                    -4.61055   1.13842  -3.98857 
 H                    -4.05988   0.62567  -4.77257 
 C                    -0.69476   2.82101   0.57006 
 C                    -0.28478   2.93062  -4.25338 
 H                    -0.56581   3.99111  -4.27132 
 H                    -0.78569   2.40664  -5.06827 
 H                     0.80372   2.84408  -4.38086 
 C                    -5.55235   2.11509  -4.31719 
 H                    -5.74146   2.36317  -5.35786 
 C                    -5.05864  -4.90851  -0.13506 
 H                    -5.57319  -5.85567  -0.01072 
 C                    -4.51239  -3.19995  -3.97541 
 H                    -5.60218  -3.29885  -3.89633 
 H                    -4.06714  -4.18391  -4.16838 
 H                    -4.26775  -2.5227   -4.79418 
 C                    -4.50389   4.85154   1.532 
 H                    -3.80643   5.67297   1.39448 
 C                     0.91616   4.34436  -0.44784 
 H                     1.66128   5.12675  -0.35294 
 C                     0.26519   3.85816   0.66858 
 H                     0.49056   4.27116   1.64807 
 C                    -4.28349   3.64158   0.87852 
 H                    -3.42194   3.53151   0.22677 
 C                    -5.6239    5.0101    2.35468 
 H                    -5.79543   5.95336   2.86481 
 C                    -2.68186  -0.44666   3.36882 
 H                    -1.63181  -0.70449   3.55125 
 H                    -3.29635  -0.80075   4.20472 
 C                    -6.5306    3.95977   2.50452 
 H                    -7.4135    4.08568   3.12429 
 Ru                    2.41704  -0.00617  -0.52613 
 P                     4.80015  -1.03864  -0.11869 
 O                     1.81151  -1.27202   0.95284 
 O                     0.75493   0.40081  -0.94499 
 O                     3.95109   2.60486   2.80112 
 O                     3.05498   1.3352    0.76111 
 N                     3.06551   1.09317  -2.10807 
 O                     0.72253  -2.29774   3.05574 
 N                     2.19614  -1.47371  -1.94143 
 C                     3.63032   2.25227  -2.04756 
 H                     3.90699   2.74311  -2.98414 
 C                     0.99813  -2.24768   0.71862 
 C                     3.69913   2.45081   0.4774 
 C                     4.18184   3.18961   1.60457 
 C                     3.96324   2.95914  -0.83204 
 C                     6.6699    0.97555   0.47153 
 H                     6.47916   0.74131   1.51376 
 C                     6.324    -2.74532  -1.83835 
 H                     7.05158  -1.9478   -1.94284 
 C                     7.77475   2.34298  -1.19403 
 H                     8.44332   3.16068  -1.44598 
 C                    -0.5966   -3.84125   1.71904 
 H                    -1.09145  -4.2594    2.58822 
 C                     6.30638   0.55028  -1.88502 
 H                     5.83002  -0.01183  -2.6833 
 C                     7.17073   1.59436  -2.20863 
 H                     7.37296   1.82501  -3.25087 
 C                     6.05705   0.21968  -0.54036 
 C                     1.36126  -2.45071  -1.793 
 H                     1.13633  -3.06124  -2.67192 
 C                     0.33962  -2.82743   1.87129 
 C                     6.01061  -2.45726   1.97543 
 H                     6.5597   -2.97854   1.19752 
 C                     7.52038   2.03222   0.14242 
 H                     7.98702   2.61066   0.93402 
 C                     4.82853   4.41074   1.42181 
 H                     5.17672   4.97772   2.27705 
 C                     5.18828  -2.57246  -1.03334 
 C                     4.35363  -0.81197   2.65571 
 H                     3.62111  -0.05457   2.41343 
 C                     4.64049   4.18882  -0.97718 
 H                     4.84623   4.563    -1.97596 
 C                     2.80862  -1.0896   -3.21338 
 H                     3.86359  -1.38749  -3.18794 
 H                     2.32969  -1.59912  -4.05751 
 C                     6.24988  -2.76923   3.31272 
 H                     6.98519  -3.52771   3.5647 
 C                     5.06301  -1.47392   1.63983 
 C                     4.60399  -1.13216   3.99108 
 H                     4.05128  -0.619     4.77337 
 C                     0.69774  -2.82436  -0.57244 
 C                     0.28601  -2.93366   4.25056 
 H                     0.56926  -3.99358   4.26664 
 H                     0.78696  -2.4097    5.06544 
 H                    -0.80247  -2.84955   4.37974 
 C                     5.54628  -2.10732   4.32275 
 H                     5.73371  -2.35383   5.36409 
 C                     5.05336   4.90973   0.13085 
 H                     5.56744   5.85712   0.00627 
 C                     4.49849   3.20711   3.97259 
 H                     5.58842   3.30658   3.89608 
 H                     4.05215   4.19112   4.16281 
 H                     4.25222   2.53107   4.79186 
 C                     4.51085  -4.85261  -1.52473 
 H                     3.81381  -5.67445  -1.38746 
 C                    -0.91406  -4.34731   0.44466 
 H                    -1.65885  -5.12999   0.3495 
 C                    -0.26176  -3.86191  -0.67132 
 H                    -0.48553  -4.27598  -1.65073 
 C                     4.28819  -3.64196  -0.87328 
 H                     3.4253   -3.53175  -0.22334 
 C                     5.63257  -5.01134  -2.34503 
 H                     5.80587  -5.95514  -2.85357 
 C                     2.68785   0.44109  -3.37198 
 H                     1.6381    0.69804  -3.55734 
 H                     3.30407   0.79443  -4.20693 
 C                     6.5387   -3.96046  -2.49452 
 H                     7.42289  -4.08646  -3.11241 
 
 ITRead=  0  0  0  0  0  0  0  0  0  0  0  0  0  0  0  0  0  0  0  0
 ITRead=  0  0  0  0  0  0  0  0  0  0  0  0  0  0  0  0  0  0  0  0
 ITRead=  0  0  0  0  0  0  0  0  0  0  0  0  0  0  0  0  0  0  0  0
 ITRead=  0  0  0  0  0  0  0  0  0  0  0  0  0  0  0  0  0  0  0  0
 ITRead=  0  0  0  0  0  0  0  0  0  0  0  0  0  0  0  0  0  0  0  0
 ITRead=  0  0  0  0  0  0  0  0  0  0  0  0  0  0  0  0  0  0  0  0
 ITRead=  0  0  0  0  0  0  0  0  0  0  0  0  0  0  0  0  0  0  0  0
 ITRead=  0  0  0  0  0  0  0  0  0  0  0  0  0  0  0  0
 MicOpt= -1 -1 -1 -1 -1 -1 -1 -1 -1 -1 -1 -1 -1 -1 -1 -1 -1 -1 -1 -1
 MicOpt= -1 -1 -1 -1 -1 -1 -1 -1 -1 -1 -1 -1 -1 -1 -1 -1 -1 -1 -1 -1
 MicOpt= -1 -1 -1 -1 -1 -1 -1 -1 -1 -1 -1 -1 -1 -1 -1 -1 -1 -1 -1 -1
 MicOpt= -1 -1 -1 -1 -1 -1 -1 -1 -1 -1 -1 -1 -1 -1 -1 -1 -1 -1 -1 -1
 MicOpt= -1 -1 -1 -1 -1 -1 -1 -1 -1 -1 -1 -1 -1 -1 -1 -1 -1 -1 -1 -1
 MicOpt= -1 -1 -1 -1 -1 -1 -1 -1 -1 -1 -1 -1 -1 -1 -1 -1 -1 -1 -1 -1
 MicOpt= -1 -1 -1 -1 -1 -1 -1 -1 -1 -1 -1 -1 -1 -1 -1 -1 -1 -1 -1 -1
 MicOpt= -1 -1 -1 -1 -1 -1 -1 -1 -1 -1 -1 -1 -1 -1 -1 -1
 NAtoms=    156 NQM=      156 NQMF=       0 NMMI=      0 NMMIF=      0
                NMic=       0 NMicF=      0.
                    Isotopes and Nuclear Properties:
 (Nuclear quadrupole moments (NQMom) in fm**2, nuclear magnetic moments (NMagM)
  in nuclear magnetons)

  Atom         1           2           3           4           5           6           7           8           9          10
 IAtWgt=         102          31          16          16          16          16          14          16          14          12
 AtmWgt= 101.9037000  30.9737634  15.9949146  15.9949146  15.9949146  15.9949146  14.0030740  15.9949146  14.0030740  12.0000000
 NucSpn=           0           1           0           0           0           0           2           0           2           0
 AtZEff=   0.0000000   0.0000000   0.0000000   0.0000000   0.0000000   0.0000000   0.0000000   0.0000000   0.0000000   0.0000000
 NQMom=    0.0000000   0.0000000   0.0000000   0.0000000   0.0000000   0.0000000   2.0440000   0.0000000   2.0440000   0.0000000
 NMagM=    0.0000000   1.1316000   0.0000000   0.0000000   0.0000000   0.0000000   0.4037610   0.0000000   0.4037610   0.0000000
 AtZNuc=  44.0000000  15.0000000   8.0000000   8.0000000   8.0000000   8.0000000   7.0000000   8.0000000   7.0000000   6.0000000

  Atom        11          12          13          14          15          16          17          18          19          20
 IAtWgt=           1          12          12          12          12          12           1          12           1          12
 AtmWgt=   1.0078250  12.0000000  12.0000000  12.0000000  12.0000000  12.0000000   1.0078250  12.0000000   1.0078250  12.0000000
 NucSpn=           1           0           0           0           0           0           1           0           1           0
 AtZEff=   0.0000000   0.0000000   0.0000000   0.0000000   0.0000000   0.0000000   0.0000000   0.0000000   0.0000000   0.0000000
 NQMom=    0.0000000   0.0000000   0.0000000   0.0000000   0.0000000   0.0000000   0.0000000   0.0000000   0.0000000   0.0000000
 NMagM=    2.7928460   0.0000000   0.0000000   0.0000000   0.0000000   0.0000000   2.7928460   0.0000000   2.7928460   0.0000000
 AtZNuc=   1.0000000   6.0000000   6.0000000   6.0000000   6.0000000   6.0000000   1.0000000   6.0000000   1.0000000   6.0000000

  Atom        21          22          23          24          25          26          27          28          29          30
 IAtWgt=           1          12           1          12           1          12           1          12          12           1
 AtmWgt=   1.0078250  12.0000000   1.0078250  12.0000000   1.0078250  12.0000000   1.0078250  12.0000000  12.0000000   1.0078250
 NucSpn=           1           0           1           0           1           0           1           0           0           1
 AtZEff=   0.0000000   0.0000000   0.0000000   0.0000000   0.0000000   0.0000000   0.0000000   0.0000000   0.0000000   0.0000000
 NQMom=    0.0000000   0.0000000   0.0000000   0.0000000   0.0000000   0.0000000   0.0000000   0.0000000   0.0000000   0.0000000
 NMagM=    2.7928460   0.0000000   2.7928460   0.0000000   2.7928460   0.0000000   2.7928460   0.0000000   0.0000000   2.7928460
 AtZNuc=   1.0000000   6.0000000   1.0000000   6.0000000   1.0000000   6.0000000   1.0000000   6.0000000   6.0000000   1.0000000

  Atom        31          32          33          34          35          36          37          38          39          40
 IAtWgt=          12          12           1          12           1          12           1          12          12           1
 AtmWgt=  12.0000000  12.0000000   1.0078250  12.0000000   1.0078250  12.0000000   1.0078250  12.0000000  12.0000000   1.0078250
 NucSpn=           0           0           1           0           1           0           1           0           0           1
 AtZEff=   0.0000000   0.0000000   0.0000000   0.0000000   0.0000000   0.0000000   0.0000000   0.0000000   0.0000000   0.0000000
 NQMom=    0.0000000   0.0000000   0.0000000   0.0000000   0.0000000   0.0000000   0.0000000   0.0000000   0.0000000   0.0000000
 NMagM=    0.0000000   0.0000000   2.7928460   0.0000000   2.7928460   0.0000000   2.7928460   0.0000000   0.0000000   2.7928460
 AtZNuc=   6.0000000   6.0000000   1.0000000   6.0000000   1.0000000   6.0000000   1.0000000   6.0000000   6.0000000   1.0000000

  Atom        41          42          43          44          45          46          47          48          49          50
 IAtWgt=          12           1          12           1           1          12           1          12          12           1
 AtmWgt=  12.0000000   1.0078250  12.0000000   1.0078250   1.0078250  12.0000000   1.0078250  12.0000000  12.0000000   1.0078250
 NucSpn=           0           1           0           1           1           0           1           0           0           1
 AtZEff=   0.0000000   0.0000000   0.0000000   0.0000000   0.0000000   0.0000000   0.0000000   0.0000000   0.0000000   0.0000000
 NQMom=    0.0000000   0.0000000   0.0000000   0.0000000   0.0000000   0.0000000   0.0000000   0.0000000   0.0000000   0.0000000
 NMagM=    0.0000000   2.7928460   0.0000000   2.7928460   2.7928460   0.0000000   2.7928460   0.0000000   0.0000000   2.7928460
 AtZNuc=   6.0000000   1.0000000   6.0000000   1.0000000   1.0000000   6.0000000   1.0000000   6.0000000   6.0000000   1.0000000

  Atom        51          52          53          54          55          56          57          58          59          60
 IAtWgt=          12          12           1           1           1          12           1          12           1          12
 AtmWgt=  12.0000000  12.0000000   1.0078250   1.0078250   1.0078250  12.0000000   1.0078250  12.0000000   1.0078250  12.0000000
 NucSpn=           0           0           1           1           1           0           1           0           1           0
 AtZEff=   0.0000000   0.0000000   0.0000000   0.0000000   0.0000000   0.0000000   0.0000000   0.0000000   0.0000000   0.0000000
 NQMom=    0.0000000   0.0000000   0.0000000   0.0000000   0.0000000   0.0000000   0.0000000   0.0000000   0.0000000   0.0000000
 NMagM=    0.0000000   0.0000000   2.7928460   2.7928460   2.7928460   0.0000000   2.7928460   0.0000000   2.7928460   0.0000000
 AtZNuc=   6.0000000   6.0000000   1.0000000   1.0000000   1.0000000   6.0000000   1.0000000   6.0000000   1.0000000   6.0000000

  Atom        61          62          63          64          65          66          67          68          69          70
 IAtWgt=           1           1           1          12           1          12           1          12           1          12
 AtmWgt=   1.0078250   1.0078250   1.0078250  12.0000000   1.0078250  12.0000000   1.0078250  12.0000000   1.0078250  12.0000000
 NucSpn=           1           1           1           0           1           0           1           0           1           0
 AtZEff=   0.0000000   0.0000000   0.0000000   0.0000000   0.0000000   0.0000000   0.0000000   0.0000000   0.0000000   0.0000000
 NQMom=    0.0000000   0.0000000   0.0000000   0.0000000   0.0000000   0.0000000   0.0000000   0.0000000   0.0000000   0.0000000
 NMagM=    2.7928460   2.7928460   2.7928460   0.0000000   2.7928460   0.0000000   2.7928460   0.0000000   2.7928460   0.0000000
 AtZNuc=   1.0000000   1.0000000   1.0000000   6.0000000   1.0000000   6.0000000   1.0000000   6.0000000   1.0000000   6.0000000

  Atom        71          72          73          74          75          76          77          78          79          80
 IAtWgt=           1          12           1          12           1           1          12           1         102          31
 AtmWgt=   1.0078250  12.0000000   1.0078250  12.0000000   1.0078250   1.0078250  12.0000000   1.0078250 101.9037000  30.9737634
 NucSpn=           1           0           1           0           1           1           0           1           0           1
 AtZEff=   0.0000000   0.0000000   0.0000000   0.0000000   0.0000000   0.0000000   0.0000000   0.0000000   0.0000000   0.0000000
 NQMom=    0.0000000   0.0000000   0.0000000   0.0000000   0.0000000   0.0000000   0.0000000   0.0000000   0.0000000   0.0000000
 NMagM=    2.7928460   0.0000000   2.7928460   0.0000000   2.7928460   2.7928460   0.0000000   2.7928460   0.0000000   1.1316000
 AtZNuc=   1.0000000   6.0000000   1.0000000   6.0000000   1.0000000   1.0000000   6.0000000   1.0000000  44.0000000  15.0000000

  Atom        81          82          83          84          85          86          87          88          89          90
 IAtWgt=          16          16          16          16          14          16          14          12           1          12
 AtmWgt=  15.9949146  15.9949146  15.9949146  15.9949146  14.0030740  15.9949146  14.0030740  12.0000000   1.0078250  12.0000000
 NucSpn=           0           0           0           0           2           0           2           0           1           0
 AtZEff=   0.0000000   0.0000000   0.0000000   0.0000000   0.0000000   0.0000000   0.0000000   0.0000000   0.0000000   0.0000000
 NQMom=    0.0000000   0.0000000   0.0000000   0.0000000   2.0440000   0.0000000   2.0440000   0.0000000   0.0000000   0.0000000
 NMagM=    0.0000000   0.0000000   0.0000000   0.0000000   0.4037610   0.0000000   0.4037610   0.0000000   2.7928460   0.0000000
 AtZNuc=   8.0000000   8.0000000   8.0000000   8.0000000   7.0000000   8.0000000   7.0000000   6.0000000   1.0000000   6.0000000

  Atom        91          92          93          94          95          96          97          98          99         100
 IAtWgt=          12          12          12          12           1          12           1          12           1          12
 AtmWgt=  12.0000000  12.0000000  12.0000000  12.0000000   1.0078250  12.0000000   1.0078250  12.0000000   1.0078250  12.0000000
 NucSpn=           0           0           0           0           1           0           1           0           1           0
 AtZEff=   0.0000000   0.0000000   0.0000000   0.0000000   0.0000000   0.0000000   0.0000000   0.0000000   0.0000000   0.0000000
 NQMom=    0.0000000   0.0000000   0.0000000   0.0000000   0.0000000   0.0000000   0.0000000   0.0000000   0.0000000   0.0000000
 NMagM=    0.0000000   0.0000000   0.0000000   0.0000000   2.7928460   0.0000000   2.7928460   0.0000000   2.7928460   0.0000000
 AtZNuc=   6.0000000   6.0000000   6.0000000   6.0000000   1.0000000   6.0000000   1.0000000   6.0000000   1.0000000   6.0000000

  Atom       101         102         103         104         105         106         107         108         109         110
 IAtWgt=           1          12           1          12           1          12          12           1          12          12
 AtmWgt=   1.0078250  12.0000000   1.0078250  12.0000000   1.0078250  12.0000000  12.0000000   1.0078250  12.0000000  12.0000000
 NucSpn=           1           0           1           0           1           0           0           1           0           0
 AtZEff=   0.0000000   0.0000000   0.0000000   0.0000000   0.0000000   0.0000000   0.0000000   0.0000000   0.0000000   0.0000000
 NQMom=    0.0000000   0.0000000   0.0000000   0.0000000   0.0000000   0.0000000   0.0000000   0.0000000   0.0000000   0.0000000
 NMagM=    2.7928460   0.0000000   2.7928460   0.0000000   2.7928460   0.0000000   0.0000000   2.7928460   0.0000000   0.0000000
 AtZNuc=   1.0000000   6.0000000   1.0000000   6.0000000   1.0000000   6.0000000   6.0000000   1.0000000   6.0000000   6.0000000

  Atom       111         112         113         114         115         116         117         118         119         120
 IAtWgt=           1          12           1          12           1          12          12           1          12           1
 AtmWgt=   1.0078250  12.0000000   1.0078250  12.0000000   1.0078250  12.0000000  12.0000000   1.0078250  12.0000000   1.0078250
 NucSpn=           1           0           1           0           1           0           0           1           0           1
 AtZEff=   0.0000000   0.0000000   0.0000000   0.0000000   0.0000000   0.0000000   0.0000000   0.0000000   0.0000000   0.0000000
 NQMom=    0.0000000   0.0000000   0.0000000   0.0000000   0.0000000   0.0000000   0.0000000   0.0000000   0.0000000   0.0000000
 NMagM=    2.7928460   0.0000000   2.7928460   0.0000000   2.7928460   0.0000000   0.0000000   2.7928460   0.0000000   2.7928460
 AtZNuc=   1.0000000   6.0000000   1.0000000   6.0000000   1.0000000   6.0000000   6.0000000   1.0000000   6.0000000   1.0000000

  Atom       121         122         123         124         125         126         127         128         129         130
 IAtWgt=          12           1           1          12           1          12          12           1          12          12
 AtmWgt=  12.0000000   1.0078250   1.0078250  12.0000000   1.0078250  12.0000000  12.0000000   1.0078250  12.0000000  12.0000000
 NucSpn=           0           1           1           0           1           0           0           1           0           0
 AtZEff=   0.0000000   0.0000000   0.0000000   0.0000000   0.0000000   0.0000000   0.0000000   0.0000000   0.0000000   0.0000000
 NQMom=    0.0000000   0.0000000   0.0000000   0.0000000   0.0000000   0.0000000   0.0000000   0.0000000   0.0000000   0.0000000
 NMagM=    0.0000000   2.7928460   2.7928460   0.0000000   2.7928460   0.0000000   0.0000000   2.7928460   0.0000000   0.0000000
 AtZNuc=   6.0000000   1.0000000   1.0000000   6.0000000   1.0000000   6.0000000   6.0000000   1.0000000   6.0000000   6.0000000

  Atom       131         132         133         134         135         136         137         138         139         140
 IAtWgt=           1           1           1          12           1          12           1          12           1           1
 AtmWgt=   1.0078250   1.0078250   1.0078250  12.0000000   1.0078250  12.0000000   1.0078250  12.0000000   1.0078250   1.0078250
 NucSpn=           1           1           1           0           1           0           1           0           1           1
 AtZEff=   0.0000000   0.0000000   0.0000000   0.0000000   0.0000000   0.0000000   0.0000000   0.0000000   0.0000000   0.0000000
 NQMom=    0.0000000   0.0000000   0.0000000   0.0000000   0.0000000   0.0000000   0.0000000   0.0000000   0.0000000   0.0000000
 NMagM=    2.7928460   2.7928460   2.7928460   0.0000000   2.7928460   0.0000000   2.7928460   0.0000000   2.7928460   2.7928460
 AtZNuc=   1.0000000   1.0000000   1.0000000   6.0000000   1.0000000   6.0000000   1.0000000   6.0000000   1.0000000   1.0000000

  Atom       141         142         143         144         145         146         147         148         149         150
 IAtWgt=           1          12           1          12           1          12           1          12           1          12
 AtmWgt=   1.0078250  12.0000000   1.0078250  12.0000000   1.0078250  12.0000000   1.0078250  12.0000000   1.0078250  12.0000000
 NucSpn=           1           0           1           0           1           0           1           0           1           0
 AtZEff=   0.0000000   0.0000000   0.0000000   0.0000000   0.0000000   0.0000000   0.0000000   0.0000000   0.0000000   0.0000000
 NQMom=    0.0000000   0.0000000   0.0000000   0.0000000   0.0000000   0.0000000   0.0000000   0.0000000   0.0000000   0.0000000
 NMagM=    2.7928460   0.0000000   2.7928460   0.0000000   2.7928460   0.0000000   2.7928460   0.0000000   2.7928460   0.0000000
 AtZNuc=   1.0000000   6.0000000   1.0000000   6.0000000   1.0000000   6.0000000   1.0000000   6.0000000   1.0000000   6.0000000

  Atom       151         152         153         154         155         156
 IAtWgt=           1          12           1           1          12           1
 AtmWgt=   1.0078250  12.0000000   1.0078250   1.0078250  12.0000000   1.0078250
 NucSpn=           1           0           1           1           0           1
 AtZEff=   0.0000000   0.0000000   0.0000000   0.0000000   0.0000000   0.0000000
 NQMom=    0.0000000   0.0000000   0.0000000   0.0000000   0.0000000   0.0000000
 NMagM=    2.7928460   0.0000000   2.7928460   2.7928460   0.0000000   2.7928460
 AtZNuc=   1.0000000   6.0000000   1.0000000   1.0000000   6.0000000   1.0000000
 Leave Link  101 at Fri Apr 26 10:11:06 2024, MaxMem=  4294967296 cpu:               4.8 elap:               0.2
 (Enter /sw/linux/gaussian/g16/g16/l202.exe)
 Stoichiometry    C72H66N4O10P2Ru2(2+)
 Framework group  C1[X(C72H66N4O10P2Ru2)]
 Deg. of freedom   462
 Full point group                 C1      NOp   1
 Largest Abelian subgroup         C1      NOp   1
 Largest concise Abelian subgroup C1      NOp   1
                         Standard orientation:                         
 ---------------------------------------------------------------------
 Center     Atomic      Atomic             Coordinates (Angstroms)
 Number     Number       Type             X           Y           Z
 ---------------------------------------------------------------------
      1         44           0       -2.416645    0.004233    0.523067
      2         15           0       -4.799137    1.039712    0.121405
      3          8           0       -1.811630    1.270905   -0.955297
      4          8           0       -0.754328   -0.404579    0.938984
      5          8           0       -3.961656   -2.599985   -2.804330
      6          8           0       -3.058374   -1.334893   -0.764605
      7          7           0       -3.062941   -1.096704    2.104892
      8          8           0       -0.724180    2.297181   -3.058370
      9          7           0       -2.191824    1.469787    1.939946
     10          6           0       -3.628292   -2.255498    2.043995
     11          1           0       -3.902989   -2.747606    2.980501
     12          6           0       -0.997180    2.245706   -0.721132
     13          6           0       -3.703034   -2.450275   -0.481070
     14          6           0       -4.189512   -3.186670   -1.608205
     15          6           0       -3.964382   -2.960419    0.828205
     16          6           0       -6.671852   -0.971906   -0.468098
     17          1           0       -6.482856   -0.736383   -1.510362
     18          6           0       -6.318185    2.745324    1.846319
     19          1           0       -7.046219    1.948270    1.951140
     20          6           0       -7.774770   -2.340700    1.197611
     21          1           0       -8.443613   -3.158153    1.449678
     22          6           0        0.597158    3.839292   -1.722224
     23          1           0        1.091207    4.257921   -2.591618
     24          6           0       -6.303408   -0.550362    1.888361
     25          1           0       -5.824992    0.010154    2.686532
     26          6           0       -7.168100   -1.594102    2.212124
     27          1           0       -7.368531   -1.826074    3.254422
     28          6           0       -6.056353   -0.218072    0.543696
     29          6           0       -1.356419    2.446270    1.791301
     30          1           0       -1.129401    3.055457    2.670613
     31          6           0       -0.339621    2.825925   -1.874143
     32          6           0       -6.011853    2.462507   -1.968552
     33          1           0       -6.558888    2.983396   -1.188932
     34          6           0       -7.522697   -2.028250   -0.138874
     35          1           0       -7.991387   -2.605116   -0.930401
     36          6           0       -4.836786   -4.407544   -1.425769
     37          1           0       -5.187761   -4.972768   -2.281033
     38          6           0       -5.184159    2.572611    1.038888
     39          6           0       -4.358035    0.816206   -2.654094
     40          1           0       -3.625937    0.057637   -2.414197
     41          6           0       -4.642314   -4.189765    0.973083
     42          1           0       -4.845877   -4.565356    1.971785
     43          6           0       -2.802036    1.084307    3.212571
     44          1           0       -3.856879    1.382878    3.189602
     45          1           0       -2.321135    1.592396    4.056444
     46          6           0       -6.253279    2.776487   -3.304977
     47          1           0       -6.988195    3.536131   -3.554592
     48          6           0       -5.064750    1.477642   -1.636021
     49          6           0       -4.610548    1.138419   -3.988568
     50          1           0       -4.059884    0.625670   -4.772569
     51          6           0       -0.694756    2.821014    0.570062
     52          6           0       -0.284784    2.930621   -4.253378
     53          1           0       -0.565811    3.991112   -4.271319
     54          1           0       -0.785691    2.406635   -5.068265
     55          1           0        0.803720    2.844078   -4.380857
     56          6           0       -5.552351    2.115085   -4.317191
     57          1           0       -5.741455    2.363167   -5.357858
     58          6           0       -5.058639   -4.908509   -0.135064
     59          1           0       -5.573190   -5.855665   -0.010721
     60          6           0       -4.512387   -3.199953   -3.975413
     61          1           0       -5.602182   -3.298854   -3.896326
     62          1           0       -4.067143   -4.183915   -4.168380
     63          1           0       -4.267750   -2.522701   -4.794179
     64          6           0       -4.503888    4.851535    1.532002
     65          1           0       -3.806430    5.672971    1.394479
     66          6           0        0.916155    4.344355   -0.447835
     67          1           0        1.661278    5.126752   -0.352939
     68          6           0        0.265194    3.858162    0.668579
     69          1           0        0.490558    4.271164    1.648070
     70          6           0       -4.283491    3.641575    0.878515
     71          1           0       -3.421940    3.531512    0.226769
     72          6           0       -5.623895    5.010100    2.354676
     73          1           0       -5.795434    5.953356    2.864806
     74          6           0       -2.681855   -0.446659    3.368824
     75          1           0       -1.631808   -0.704490    3.551248
     76          1           0       -3.296346   -0.800754    4.204725
     77          6           0       -6.530598    3.959765    2.504522
     78          1           0       -7.413497    4.085676    3.124286
     79         44           0        2.417036   -0.006165   -0.526128
     80         15           0        4.800151   -1.038641   -0.118691
     81          8           0        1.811514   -1.272024    0.952842
     82          8           0        0.754925    0.400806   -0.944986
     83          8           0        3.951087    2.604861    2.801115
     84          8           0        3.054983    1.335197    0.761112
     85          7           0        3.065513    1.093167   -2.108072
     86          8           0        0.722526   -2.297742    3.055740
     87          7           0        2.196142   -1.473714   -1.941430
     88          6           0        3.630318    2.252270   -2.047560
     89          1           0        3.906987    2.743114   -2.984144
     90          6           0        0.998127   -2.247682    0.718621
     91          6           0        3.699125    2.450811    0.477397
     92          6           0        4.181841    3.189606    1.604570
     93          6           0        3.963242    2.959135   -0.832038
     94          6           0        6.669897    0.975549    0.471529
     95          1           0        6.479159    0.741313    1.513764
     96          6           0        6.324003   -2.745317   -1.838351
     97          1           0        7.051579   -1.947800   -1.942836
     98          6           0        7.774746    2.342977   -1.194027
     99          1           0        8.443325    3.160680   -1.445982
    100          6           0       -0.596601   -3.841247    1.719040
    101          1           0       -1.091452   -4.259395    2.588219
    102          6           0        6.306377    0.550280   -1.885021
    103          1           0        5.830015   -0.011831   -2.683302
    104          6           0        7.170728    1.594357   -2.208628
    105          1           0        7.372955    1.825009   -3.250873
    106          6           0        6.057047    0.219679   -0.540361
    107          6           0        1.361263   -2.450706   -1.793004
    108          1           0        1.136329   -3.061238   -2.671920
    109          6           0        0.339622   -2.827434    1.871289
    110          6           0        6.010614   -2.457255    1.975432
    111          1           0        6.559701   -2.978538    1.197517
    112          6           0        7.520383    2.032217    0.142424
    113          1           0        7.987020    2.610656    0.934017
    114          6           0        4.828531    4.410740    1.421809
    115          1           0        5.176717    4.977720    2.277050
    116          6           0        5.188278   -2.572464   -1.033342
    117          6           0        4.353633   -0.811968    2.655708
    118          1           0        3.621112   -0.054567    2.413428
    119          6           0        4.640493    4.188816   -0.977178
    120          1           0        4.846231    4.562997   -1.975962
    121          6           0        2.808617   -1.089597   -3.213383
    122          1           0        3.863590   -1.387493   -3.187936
    123          1           0        2.329692   -1.599124   -4.057513
    124          6           0        6.249876   -2.769233    3.312715
    125          1           0        6.985188   -3.527710    3.564703
    126          6           0        5.063013   -1.473915    1.639829
    127          6           0        4.603989   -1.132163    3.991077
    128          1           0        4.051284   -0.619002    4.773374
    129          6           0        0.697737   -2.824358   -0.572438
    130          6           0        0.286011   -2.933657    4.250555
    131          1           0        0.569259   -3.993577    4.266642
    132          1           0        0.786956   -2.409698    5.065441
    133          1           0       -0.802472   -2.849549    4.379743
    134          6           0        5.546281   -2.107324    4.322748
    135          1           0        5.733714   -2.353834    5.364091
    136          6           0        5.053363    4.909734    0.130852
    137          1           0        5.567435    5.857118    0.006272
    138          6           0        4.498490    3.207110    3.972585
    139          1           0        5.588416    3.306578    3.896084
    140          1           0        4.052155    4.191116    4.162814
    141          1           0        4.252220    2.531069    4.791864
    142          6           0        4.510850   -4.852611   -1.524729
    143          1           0        3.813810   -5.674445   -1.387461
    144          6           0       -0.914055   -4.347310    0.444662
    145          1           0       -1.658846   -5.129992    0.349495
    146          6           0       -0.261756   -3.861905   -0.671323
    147          1           0       -0.485534   -4.275978   -1.650728
    148          6           0        4.288188   -3.641964   -0.873284
    149          1           0        3.425301   -3.531749   -0.223338
    150          6           0        5.632574   -5.011344   -2.345028
    151          1           0        5.805871   -5.955135   -2.853573
    152          6           0        2.687850    0.441094   -3.371980
    153          1           0        1.638102    0.698042   -3.557344
    154          1           0        3.304069    0.794426   -4.206930
    155          6           0        6.538695   -3.960459   -2.494523
    156          1           0        7.422892   -4.086460   -3.112415
 ---------------------------------------------------------------------
 Rotational constants (GHZ):           0.0347711           0.0165189           0.0148658
 Leave Link  202 at Fri Apr 26 10:11:06 2024, MaxMem=  4294967296 cpu:               0.2 elap:               0.1
 (Enter /sw/linux/gaussian/g16/g16/l301.exe)
 Standard basis: def2TZVP (5D, 7F)
 ======================================================================================================
                                       Pseudopotential Parameters
 ======================================================================================================
  Center     Atomic      Valence      Angular      Power
  Number     Number     Electrons     Momentum     of R      Exponent        Coefficient   SO-Coeffient
 ======================================================================================================
    1         44           16
                                      G and up 
                                                     2        1.0000000        0.00000000    0.00000000
                                      S - G
                                                     2       11.1052690      209.82297100    0.00000000
                                                     2        5.4147450       30.65472600    0.00000000
                                      P - G
                                                     2        9.7712710      146.33618200    0.00000000
                                                     2        5.0739910       24.12787700    0.00000000
                                      D - G
                                                     2        7.6714230       67.51589700    0.00000000
                                                     2        4.1365650        9.87010400    0.00000000
                                      F - G
                                                     2       11.3600000      -28.34061600    0.00000000
                                                     2        5.6800000       -4.94462900    0.00000000
    2         15
                                   No pseudopotential on this center.
    3          8
                                   No pseudopotential on this center.
    4          8
                                   No pseudopotential on this center.
    5          8
                                   No pseudopotential on this center.
    6          8
                                   No pseudopotential on this center.
    7          7
                                   No pseudopotential on this center.
    8          8
                                   No pseudopotential on this center.
    9          7
                                   No pseudopotential on this center.
   10          6
                                   No pseudopotential on this center.
   11          1
                                   No pseudopotential on this center.
   12          6
                                   No pseudopotential on this center.
   13          6
                                   No pseudopotential on this center.
   14          6
                                   No pseudopotential on this center.
   15          6
                                   No pseudopotential on this center.
   16          6
                                   No pseudopotential on this center.
   17          1
                                   No pseudopotential on this center.
   18          6
                                   No pseudopotential on this center.
   19          1
                                   No pseudopotential on this center.
   20          6
                                   No pseudopotential on this center.
   21          1
                                   No pseudopotential on this center.
   22          6
                                   No pseudopotential on this center.
   23          1
                                   No pseudopotential on this center.
   24          6
                                   No pseudopotential on this center.
   25          1
                                   No pseudopotential on this center.
   26          6
                                   No pseudopotential on this center.
   27          1
                                   No pseudopotential on this center.
   28          6
                                   No pseudopotential on this center.
   29          6
                                   No pseudopotential on this center.
   30          1
                                   No pseudopotential on this center.
   31          6
                                   No pseudopotential on this center.
   32          6
                                   No pseudopotential on this center.
   33          1
                                   No pseudopotential on this center.
   34          6
                                   No pseudopotential on this center.
   35          1
                                   No pseudopotential on this center.
   36          6
                                   No pseudopotential on this center.
   37          1
                                   No pseudopotential on this center.
   38          6
                                   No pseudopotential on this center.
   39          6
                                   No pseudopotential on this center.
   40          1
                                   No pseudopotential on this center.
   41          6
                                   No pseudopotential on this center.
   42          1
                                   No pseudopotential on this center.
   43          6
                                   No pseudopotential on this center.
   44          1
                                   No pseudopotential on this center.
   45          1
                                   No pseudopotential on this center.
   46          6
                                   No pseudopotential on this center.
   47          1
                                   No pseudopotential on this center.
   48          6
                                   No pseudopotential on this center.
   49          6
                                   No pseudopotential on this center.
   50          1
                                   No pseudopotential on this center.
   51          6
                                   No pseudopotential on this center.
   52          6
                                   No pseudopotential on this center.
   53          1
                                   No pseudopotential on this center.
   54          1
                                   No pseudopotential on this center.
   55          1
                                   No pseudopotential on this center.
   56          6
                                   No pseudopotential on this center.
   57          1
                                   No pseudopotential on this center.
   58          6
                                   No pseudopotential on this center.
   59          1
                                   No pseudopotential on this center.
   60          6
                                   No pseudopotential on this center.
   61          1
                                   No pseudopotential on this center.
   62          1
                                   No pseudopotential on this center.
   63          1
                                   No pseudopotential on this center.
   64          6
                                   No pseudopotential on this center.
   65          1
                                   No pseudopotential on this center.
   66          6
                                   No pseudopotential on this center.
   67          1
                                   No pseudopotential on this center.
   68          6
                                   No pseudopotential on this center.
   69          1
                                   No pseudopotential on this center.
   70          6
                                   No pseudopotential on this center.
   71          1
                                   No pseudopotential on this center.
   72          6
                                   No pseudopotential on this center.
   73          1
                                   No pseudopotential on this center.
   74          6
                                   No pseudopotential on this center.
   75          1
                                   No pseudopotential on this center.
   76          1
                                   No pseudopotential on this center.
   77          6
                                   No pseudopotential on this center.
   78          1
                                   No pseudopotential on this center.
   79         44           16
                                   Pseudopotential same as on center     1
   80         15
                                   No pseudopotential on this center.
   81          8
                                   No pseudopotential on this center.
   82          8
                                   No pseudopotential on this center.
   83          8
                                   No pseudopotential on this center.
   84          8
                                   No pseudopotential on this center.
   85          7
                                   No pseudopotential on this center.
   86          8
                                   No pseudopotential on this center.
   87          7
                                   No pseudopotential on this center.
   88          6
                                   No pseudopotential on this center.
   89          1
                                   No pseudopotential on this center.
   90          6
                                   No pseudopotential on this center.
   91          6
                                   No pseudopotential on this center.
   92          6
                                   No pseudopotential on this center.
   93          6
                                   No pseudopotential on this center.
   94          6
                                   No pseudopotential on this center.
   95          1
                                   No pseudopotential on this center.
   96          6
                                   No pseudopotential on this center.
   97          1
                                   No pseudopotential on this center.
   98          6
                                   No pseudopotential on this center.
   99          1
                                   No pseudopotential on this center.
  100          6
                                   No pseudopotential on this center.
  101          1
                                   No pseudopotential on this center.
  102          6
                                   No pseudopotential on this center.
  103          1
                                   No pseudopotential on this center.
  104          6
                                   No pseudopotential on this center.
  105          1
                                   No pseudopotential on this center.
  106          6
                                   No pseudopotential on this center.
  107          6
                                   No pseudopotential on this center.
  108          1
                                   No pseudopotential on this center.
  109          6
                                   No pseudopotential on this center.
  110          6
                                   No pseudopotential on this center.
  111          1
                                   No pseudopotential on this center.
  112          6
                                   No pseudopotential on this center.
  113          1
                                   No pseudopotential on this center.
  114          6
                                   No pseudopotential on this center.
  115          1
                                   No pseudopotential on this center.
  116          6
                                   No pseudopotential on this center.
  117          6
                                   No pseudopotential on this center.
  118          1
                                   No pseudopotential on this center.
  119          6
                                   No pseudopotential on this center.
  120          1
                                   No pseudopotential on this center.
  121          6
                                   No pseudopotential on this center.
  122          1
                                   No pseudopotential on this center.
  123          1
                                   No pseudopotential on this center.
  124          6
                                   No pseudopotential on this center.
  125          1
                                   No pseudopotential on this center.
  126          6
                                   No pseudopotential on this center.
  127          6
                                   No pseudopotential on this center.
  128          1
                                   No pseudopotential on this center.
  129          6
                                   No pseudopotential on this center.
  130          6
                                   No pseudopotential on this center.
  131          1
                                   No pseudopotential on this center.
  132          1
                                   No pseudopotential on this center.
  133          1
                                   No pseudopotential on this center.
  134          6
                                   No pseudopotential on this center.
  135          1
                                   No pseudopotential on this center.
  136          6
                                   No pseudopotential on this center.
  137          1
                                   No pseudopotential on this center.
  138          6
                                   No pseudopotential on this center.
  139          1
                                   No pseudopotential on this center.
  140          1
                                   No pseudopotential on this center.
  141          1
                                   No pseudopotential on this center.
  142          6
                                   No pseudopotential on this center.
  143          1
                                   No pseudopotential on this center.
  144          6
                                   No pseudopotential on this center.
  145          1
                                   No pseudopotential on this center.
  146          6
                                   No pseudopotential on this center.
  147          1
                                   No pseudopotential on this center.
  148          6
                                   No pseudopotential on this center.
  149          1
                                   No pseudopotential on this center.
  150          6
                                   No pseudopotential on this center.
  151          1
                                   No pseudopotential on this center.
  152          6
                                   No pseudopotential on this center.
  153          1
                                   No pseudopotential on this center.
  154          1
                                   No pseudopotential on this center.
  155          6
                                   No pseudopotential on this center.
  156          1
                                   No pseudopotential on this center.
 ======================================================================================================
 Ernie: Thresh=  0.10000D-02 Tol=  0.10000D-05 Strict=F.
 AO basis set in the form of general basis input (Overlap normalization):
      1 0
 S   2 1.00       0.000000000000
      0.1600000000D+02 -0.1573764227D+01
      0.1391058169D+02  0.2558906234D+01
 S   1 1.00       0.000000000000
      0.4796797141D+01  0.1000000000D+01
 S   1 1.00       0.000000000000
      0.1155542559D+01  0.1000000000D+01
 S   1 1.00       0.000000000000
      0.5245574118D+00  0.1000000000D+01
 S   1 1.00       0.000000000000
      0.1073457265D+00  0.1000000000D+01
 S   1 1.00       0.000000000000
      0.3943276019D-01  0.1000000000D+01
 P   4 1.00       0.000000000000
      0.1118720867D+02  0.6141290715D-01
      0.6247768873D+01 -0.2622856795D+00
      0.1627947286D+01  0.5523344774D+00
      0.7932649354D+00  0.5793783366D+00
 P   1 1.00       0.000000000000
      0.3670727686D+00  0.1000000000D+01
 P   1 1.00       0.000000000000
      0.1150000000D+00  0.1000000000D+01
 P   1 1.00       0.000000000000
      0.3700000000D-01  0.1000000000D+01
 D   3 1.00       0.000000000000
      0.5734184662D+01 -0.5763190139D-01
      0.2248368629D+01  0.3562966266D+00
      0.9837697836D+00  0.7306439888D+00
 D   1 1.00       0.000000000000
      0.4037944558D+00  0.1000000000D+01
 D   1 1.00       0.000000000000
      0.1497861817D+00  0.1000000000D+01
 F   1 1.00       0.000000000000
      0.9431400000D+00  0.1000000000D+01
 ****
      2 0
 S   7 1.00       0.000000000000
      0.5242699923D+05  0.5350794754D-03
      0.7863266055D+04  0.4136499449D-02
      0.1789522733D+04  0.2125650053D-01
      0.5062730017D+03  0.8303042596D-01
      0.1646069855D+03  0.2407611725D+00
      0.5839191872D+02  0.4491055900D+00
      0.2164366320D+02  0.3426250636D+00
 S   3 1.00       0.000000000000
      0.9901383762D+02  0.8820426703D-01
      0.3055043982D+02  0.3853170872D+00
      0.5453708766D+01 -0.1186531918D+01
 S   2 1.00       0.000000000000
      0.2650336256D+01  0.6822575618D+00
      0.1272668887D+01  0.3392684095D+00
 S   1 1.00       0.000000000000
      0.3164500520D+00  0.1000000000D+01
 S   1 1.00       0.000000000000
      0.1141746694D+00  0.1000000000D+01
 P   5 1.00       0.000000000000
      0.4722721925D+03  0.3644000722D-02
      0.1115888276D+03  0.2870101607D-01
      0.3544593642D+02  0.1297985651D+00
      0.1299077688D+02  0.3649504286D+00
      0.5048622166D+01  0.6075015660D+00
 P   1 1.00       0.000000000000
      0.1993404957D+01  0.1000000000D+01
 P   1 1.00       0.000000000000
      0.6652728443D+00  0.1000000000D+01
 P   1 1.00       0.000000000000
      0.2551683213D+00  0.1000000000D+01
 P   1 1.00       0.000000000000
      0.9035776225D-01  0.1000000000D+01
 D   2 1.00       0.000000000000
      0.3120000000D+01  0.1833871821D+00
      0.6480000000D+00  0.9169359104D+00
 D   1 1.00       0.000000000000
      0.2180000000D+00  0.1000000000D+01
 F   1 1.00       0.000000000000
      0.4520000000D+00  0.1000000000D+01
 ****
      3 0
 S   6 1.00       0.000000000000
      0.2703238263D+05  0.5722733521D-03
      0.4052387139D+04  0.4435323349D-02
      0.9223272271D+03  0.2302010771D-01
      0.2612407099D+03  0.9282249067D-01
      0.8535464135D+02  0.2937850001D+00
      0.3103503525D+02  0.6740160450D+00
 S   2 1.00       0.000000000000
      0.1226086073D+02  0.6383993703D+00
      0.4998707601D+01  0.3953458713D+00
 S   1 1.00       0.000000000000
      0.1170310816D+01  0.1000000000D+01
 S   1 1.00       0.000000000000
      0.4647474099D+00  0.1000000000D+01
 S   1 1.00       0.000000000000
      0.1850453636D+00  0.1000000000D+01
 P   4 1.00       0.000000000000
      0.6327495480D+02  0.1201833222D-01
      0.1462704938D+02  0.8300542179D-01
      0.4450122346D+01  0.3199174393D+00
      0.1527579965D+01  0.7071554292D+00
 P   1 1.00       0.000000000000
      0.5293511794D+00  0.1000000000D+01
 P   1 1.00       0.000000000000
      0.1747842127D+00  0.1000000000D+01
 D   1 1.00       0.000000000000
      0.2314000000D+01  0.1000000000D+01
 D   1 1.00       0.000000000000
      0.6450000000D+00  0.1000000000D+01
 F   1 1.00       0.000000000000
      0.1428000000D+01  0.1000000000D+01
 ****
      4 0
 S   6 1.00       0.000000000000
      0.2703238263D+05  0.5722733521D-03
      0.4052387139D+04  0.4435323349D-02
      0.9223272271D+03  0.2302010771D-01
      0.2612407099D+03  0.9282249067D-01
      0.8535464135D+02  0.2937850001D+00
      0.3103503525D+02  0.6740160450D+00
 S   2 1.00       0.000000000000
      0.1226086073D+02  0.6383993703D+00
      0.4998707601D+01  0.3953458713D+00
 S   1 1.00       0.000000000000
      0.1170310816D+01  0.1000000000D+01
 S   1 1.00       0.000000000000
      0.4647474099D+00  0.1000000000D+01
 S   1 1.00       0.000000000000
      0.1850453636D+00  0.1000000000D+01
 P   4 1.00       0.000000000000
      0.6327495480D+02  0.1201833222D-01
      0.1462704938D+02  0.8300542179D-01
      0.4450122346D+01  0.3199174393D+00
      0.1527579965D+01  0.7071554292D+00
 P   1 1.00       0.000000000000
      0.5293511794D+00  0.1000000000D+01
 P   1 1.00       0.000000000000
      0.1747842127D+00  0.1000000000D+01
 D   1 1.00       0.000000000000
      0.2314000000D+01  0.1000000000D+01
 D   1 1.00       0.000000000000
      0.6450000000D+00  0.1000000000D+01
 F   1 1.00       0.000000000000
      0.1428000000D+01  0.1000000000D+01
 ****
      5 0
 S   6 1.00       0.000000000000
      0.2703238263D+05  0.5722733521D-03
      0.4052387139D+04  0.4435323349D-02
      0.9223272271D+03  0.2302010771D-01
      0.2612407099D+03  0.9282249067D-01
      0.8535464135D+02  0.2937850001D+00
      0.3103503525D+02  0.6740160450D+00
 S   2 1.00       0.000000000000
      0.1226086073D+02  0.6383993703D+00
      0.4998707601D+01  0.3953458713D+00
 S   1 1.00       0.000000000000
      0.1170310816D+01  0.1000000000D+01
 S   1 1.00       0.000000000000
      0.4647474099D+00  0.1000000000D+01
 S   1 1.00       0.000000000000
      0.1850453636D+00  0.1000000000D+01
 P   4 1.00       0.000000000000
      0.6327495480D+02  0.1201833222D-01
      0.1462704938D+02  0.8300542179D-01
      0.4450122346D+01  0.3199174393D+00
      0.1527579965D+01  0.7071554292D+00
 P   1 1.00       0.000000000000
      0.5293511794D+00  0.1000000000D+01
 P   1 1.00       0.000000000000
      0.1747842127D+00  0.1000000000D+01
 D   1 1.00       0.000000000000
      0.2314000000D+01  0.1000000000D+01
 D   1 1.00       0.000000000000
      0.6450000000D+00  0.1000000000D+01
 F   1 1.00       0.000000000000
      0.1428000000D+01  0.1000000000D+01
 ****
      6 0
 S   6 1.00       0.000000000000
      0.2703238263D+05  0.5722733521D-03
      0.4052387139D+04  0.4435323349D-02
      0.9223272271D+03  0.2302010771D-01
      0.2612407099D+03  0.9282249067D-01
      0.8535464135D+02  0.2937850001D+00
      0.3103503525D+02  0.6740160450D+00
 S   2 1.00       0.000000000000
      0.1226086073D+02  0.6383993703D+00
      0.4998707601D+01  0.3953458713D+00
 S   1 1.00       0.000000000000
      0.1170310816D+01  0.1000000000D+01
 S   1 1.00       0.000000000000
      0.4647474099D+00  0.1000000000D+01
 S   1 1.00       0.000000000000
      0.1850453636D+00  0.1000000000D+01
 P   4 1.00       0.000000000000
      0.6327495480D+02  0.1201833222D-01
      0.1462704938D+02  0.8300542179D-01
      0.4450122346D+01  0.3199174393D+00
      0.1527579965D+01  0.7071554292D+00
 P   1 1.00       0.000000000000
      0.5293511794D+00  0.1000000000D+01
 P   1 1.00       0.000000000000
      0.1747842127D+00  0.1000000000D+01
 D   1 1.00       0.000000000000
      0.2314000000D+01  0.1000000000D+01
 D   1 1.00       0.000000000000
      0.6450000000D+00  0.1000000000D+01
 F   1 1.00       0.000000000000
      0.1428000000D+01  0.1000000000D+01
 ****
      7 0
 S   6 1.00       0.000000000000
      0.1973080065D+05  0.5862640263D-03
      0.2957895875D+04  0.4542882059D-02
      0.6732213360D+03  0.2355841345D-01
      0.1906824949D+03  0.9470919329D-01
      0.6229544190D+02  0.2971978491D+00
      0.2265416118D+02  0.6691624690D+00
 S   2 1.00       0.000000000000
      0.8979147743D+01  0.6459668363D+00
      0.3686300237D+01  0.3870057439D+00
 S   1 1.00       0.000000000000
      0.8466007680D+00  0.1000000000D+01
 S   1 1.00       0.000000000000
      0.3364713377D+00  0.1000000000D+01
 S   1 1.00       0.000000000000
      0.1364765367D+00  0.1000000000D+01
 P   4 1.00       0.000000000000
      0.4920038051D+02  0.1144882510D-01
      0.1134679054D+02  0.7842233797D-01
      0.3427397241D+01  0.3081809474D+00
      0.1178552513D+01  0.7202719637D+00
 P   1 1.00       0.000000000000
      0.4164220497D+00  0.1000000000D+01
 P   1 1.00       0.000000000000
      0.1426082601D+00  0.1000000000D+01
 D   1 1.00       0.000000000000
      0.1654000000D+01  0.1000000000D+01
 D   1 1.00       0.000000000000
      0.4690000000D+00  0.1000000000D+01
 F   1 1.00       0.000000000000
      0.1093000000D+01  0.1000000000D+01
 ****
      8 0
 S   6 1.00       0.000000000000
      0.2703238263D+05  0.5722733521D-03
      0.4052387139D+04  0.4435323349D-02
      0.9223272271D+03  0.2302010771D-01
      0.2612407099D+03  0.9282249067D-01
      0.8535464135D+02  0.2937850001D+00
      0.3103503525D+02  0.6740160450D+00
 S   2 1.00       0.000000000000
      0.1226086073D+02  0.6383993703D+00
      0.4998707601D+01  0.3953458713D+00
 S   1 1.00       0.000000000000
      0.1170310816D+01  0.1000000000D+01
 S   1 1.00       0.000000000000
      0.4647474099D+00  0.1000000000D+01
 S   1 1.00       0.000000000000
      0.1850453636D+00  0.1000000000D+01
 P   4 1.00       0.000000000000
      0.6327495480D+02  0.1201833222D-01
      0.1462704938D+02  0.8300542179D-01
      0.4450122346D+01  0.3199174393D+00
      0.1527579965D+01  0.7071554292D+00
 P   1 1.00       0.000000000000
      0.5293511794D+00  0.1000000000D+01
 P   1 1.00       0.000000000000
      0.1747842127D+00  0.1000000000D+01
 D   1 1.00       0.000000000000
      0.2314000000D+01  0.1000000000D+01
 D   1 1.00       0.000000000000
      0.6450000000D+00  0.1000000000D+01
 F   1 1.00       0.000000000000
      0.1428000000D+01  0.1000000000D+01
 ****
      9 0
 S   6 1.00       0.000000000000
      0.1973080065D+05  0.5862640263D-03
      0.2957895875D+04  0.4542882059D-02
      0.6732213360D+03  0.2355841345D-01
      0.1906824949D+03  0.9470919329D-01
      0.6229544190D+02  0.2971978491D+00
      0.2265416118D+02  0.6691624690D+00
 S   2 1.00       0.000000000000
      0.8979147743D+01  0.6459668363D+00
      0.3686300237D+01  0.3870057439D+00
 S   1 1.00       0.000000000000
      0.8466007680D+00  0.1000000000D+01
 S   1 1.00       0.000000000000
      0.3364713377D+00  0.1000000000D+01
 S   1 1.00       0.000000000000
      0.1364765367D+00  0.1000000000D+01
 P   4 1.00       0.000000000000
      0.4920038051D+02  0.1144882510D-01
      0.1134679054D+02  0.7842233797D-01
      0.3427397241D+01  0.3081809474D+00
      0.1178552513D+01  0.7202719637D+00
 P   1 1.00       0.000000000000
      0.4164220497D+00  0.1000000000D+01
 P   1 1.00       0.000000000000
      0.1426082601D+00  0.1000000000D+01
 D   1 1.00       0.000000000000
      0.1654000000D+01  0.1000000000D+01
 D   1 1.00       0.000000000000
      0.4690000000D+00  0.1000000000D+01
 F   1 1.00       0.000000000000
      0.1093000000D+01  0.1000000000D+01
 ****
     10 0
 S   6 1.00       0.000000000000
      0.1357534968D+05  0.6064550360D-03
      0.2035233368D+04  0.4697908888D-02
      0.4632256236D+03  0.2433247765D-01
      0.1312001960D+03  0.9739996831D-01
      0.4285301589D+02  0.3019558425D+00
      0.1558418577D+02  0.6623360914D+00
 S   2 1.00       0.000000000000
      0.6206713851D+01  0.6559530854D+00
      0.2576489653D+01  0.3758563329D+00
 S   1 1.00       0.000000000000
      0.5769633942D+00  0.1000000000D+01
 S   1 1.00       0.000000000000
      0.2297283136D+00  0.1000000000D+01
 S   1 1.00       0.000000000000
      0.9516444003D-01  0.1000000000D+01
 P   4 1.00       0.000000000000
      0.3469723224D+02  0.1132722000D-01
      0.7958262283D+01  0.7616965920D-01
      0.2378082688D+01  0.3019225220D+00
      0.8143320818D+00  0.7278502735D+00
 P   1 1.00       0.000000000000
      0.2888754725D+00  0.1000000000D+01
 P   1 1.00       0.000000000000
      0.1005682367D+00  0.1000000000D+01
 D   1 1.00       0.000000000000
      0.1097000000D+01  0.1000000000D+01
 D   1 1.00       0.000000000000
      0.3180000000D+00  0.1000000000D+01
 F   1 1.00       0.000000000000
      0.7610000000D+00  0.1000000000D+01
 ****
     11 0
 S   3 1.00       0.000000000000
      0.3406134100D+02  0.2543930721D-01
      0.5123574600D+01  0.1900859489D+00
      0.1164662600D+01  0.8524411301D+00
 S   1 1.00       0.000000000000
      0.3272304100D+00  0.1000000000D+01
 S   1 1.00       0.000000000000
      0.1030724100D+00  0.1000000000D+01
 P   1 1.00       0.000000000000
      0.8000000000D+00  0.1000000000D+01
 ****
     12 0
 S   6 1.00       0.000000000000
      0.1357534968D+05  0.6064550360D-03
      0.2035233368D+04  0.4697908888D-02
      0.4632256236D+03  0.2433247765D-01
      0.1312001960D+03  0.9739996831D-01
      0.4285301589D+02  0.3019558425D+00
      0.1558418577D+02  0.6623360914D+00
 S   2 1.00       0.000000000000
      0.6206713851D+01  0.6559530854D+00
      0.2576489653D+01  0.3758563329D+00
 S   1 1.00       0.000000000000
      0.5769633942D+00  0.1000000000D+01
 S   1 1.00       0.000000000000
      0.2297283136D+00  0.1000000000D+01
 S   1 1.00       0.000000000000
      0.9516444003D-01  0.1000000000D+01
 P   4 1.00       0.000000000000
      0.3469723224D+02  0.1132722000D-01
      0.7958262283D+01  0.7616965920D-01
      0.2378082688D+01  0.3019225220D+00
      0.8143320818D+00  0.7278502735D+00
 P   1 1.00       0.000000000000
      0.2888754725D+00  0.1000000000D+01
 P   1 1.00       0.000000000000
      0.1005682367D+00  0.1000000000D+01
 D   1 1.00       0.000000000000
      0.1097000000D+01  0.1000000000D+01
 D   1 1.00       0.000000000000
      0.3180000000D+00  0.1000000000D+01
 F   1 1.00       0.000000000000
      0.7610000000D+00  0.1000000000D+01
 ****
     13 0
 S   6 1.00       0.000000000000
      0.1357534968D+05  0.6064550360D-03
      0.2035233368D+04  0.4697908888D-02
      0.4632256236D+03  0.2433247765D-01
      0.1312001960D+03  0.9739996831D-01
      0.4285301589D+02  0.3019558425D+00
      0.1558418577D+02  0.6623360914D+00
 S   2 1.00       0.000000000000
      0.6206713851D+01  0.6559530854D+00
      0.2576489653D+01  0.3758563329D+00
 S   1 1.00       0.000000000000
      0.5769633942D+00  0.1000000000D+01
 S   1 1.00       0.000000000000
      0.2297283136D+00  0.1000000000D+01
 S   1 1.00       0.000000000000
      0.9516444003D-01  0.1000000000D+01
 P   4 1.00       0.000000000000
      0.3469723224D+02  0.1132722000D-01
      0.7958262283D+01  0.7616965920D-01
      0.2378082688D+01  0.3019225220D+00
      0.8143320818D+00  0.7278502735D+00
 P   1 1.00       0.000000000000
      0.2888754725D+00  0.1000000000D+01
 P   1 1.00       0.000000000000
      0.1005682367D+00  0.1000000000D+01
 D   1 1.00       0.000000000000
      0.1097000000D+01  0.1000000000D+01
 D   1 1.00       0.000000000000
      0.3180000000D+00  0.1000000000D+01
 F   1 1.00       0.000000000000
      0.7610000000D+00  0.1000000000D+01
 ****
     14 0
 S   6 1.00       0.000000000000
      0.1357534968D+05  0.6064550360D-03
      0.2035233368D+04  0.4697908888D-02
      0.4632256236D+03  0.2433247765D-01
      0.1312001960D+03  0.9739996831D-01
      0.4285301589D+02  0.3019558425D+00
      0.1558418577D+02  0.6623360914D+00
 S   2 1.00       0.000000000000
      0.6206713851D+01  0.6559530854D+00
      0.2576489653D+01  0.3758563329D+00
 S   1 1.00       0.000000000000
      0.5769633942D+00  0.1000000000D+01
 S   1 1.00       0.000000000000
      0.2297283136D+00  0.1000000000D+01
 S   1 1.00       0.000000000000
      0.9516444003D-01  0.1000000000D+01
 P   4 1.00       0.000000000000
      0.3469723224D+02  0.1132722000D-01
      0.7958262283D+01  0.7616965920D-01
      0.2378082688D+01  0.3019225220D+00
      0.8143320818D+00  0.7278502735D+00
 P   1 1.00       0.000000000000
      0.2888754725D+00  0.1000000000D+01
 P   1 1.00       0.000000000000
      0.1005682367D+00  0.1000000000D+01
 D   1 1.00       0.000000000000
      0.1097000000D+01  0.1000000000D+01
 D   1 1.00       0.000000000000
      0.3180000000D+00  0.1000000000D+01
 F   1 1.00       0.000000000000
      0.7610000000D+00  0.1000000000D+01
 ****
     15 0
 S   6 1.00       0.000000000000
      0.1357534968D+05  0.6064550360D-03
      0.2035233368D+04  0.4697908888D-02
      0.4632256236D+03  0.2433247765D-01
      0.1312001960D+03  0.9739996831D-01
      0.4285301589D+02  0.3019558425D+00
      0.1558418577D+02  0.6623360914D+00
 S   2 1.00       0.000000000000
      0.6206713851D+01  0.6559530854D+00
      0.2576489653D+01  0.3758563329D+00
 S   1 1.00       0.000000000000
      0.5769633942D+00  0.1000000000D+01
 S   1 1.00       0.000000000000
      0.2297283136D+00  0.1000000000D+01
 S   1 1.00       0.000000000000
      0.9516444003D-01  0.1000000000D+01
 P   4 1.00       0.000000000000
      0.3469723224D+02  0.1132722000D-01
      0.7958262283D+01  0.7616965920D-01
      0.2378082688D+01  0.3019225220D+00
      0.8143320818D+00  0.7278502735D+00
 P   1 1.00       0.000000000000
      0.2888754725D+00  0.1000000000D+01
 P   1 1.00       0.000000000000
      0.1005682367D+00  0.1000000000D+01
 D   1 1.00       0.000000000000
      0.1097000000D+01  0.1000000000D+01
 D   1 1.00       0.000000000000
      0.3180000000D+00  0.1000000000D+01
 F   1 1.00       0.000000000000
      0.7610000000D+00  0.1000000000D+01
 ****
     16 0
 S   6 1.00       0.000000000000
      0.1357534968D+05  0.6064550360D-03
      0.2035233368D+04  0.4697908888D-02
      0.4632256236D+03  0.2433247765D-01
      0.1312001960D+03  0.9739996831D-01
      0.4285301589D+02  0.3019558425D+00
      0.1558418577D+02  0.6623360914D+00
 S   2 1.00       0.000000000000
      0.6206713851D+01  0.6559530854D+00
      0.2576489653D+01  0.3758563329D+00
 S   1 1.00       0.000000000000
      0.5769633942D+00  0.1000000000D+01
 S   1 1.00       0.000000000000
      0.2297283136D+00  0.1000000000D+01
 S   1 1.00       0.000000000000
      0.9516444003D-01  0.1000000000D+01
 P   4 1.00       0.000000000000
      0.3469723224D+02  0.1132722000D-01
      0.7958262283D+01  0.7616965920D-01
      0.2378082688D+01  0.3019225220D+00
      0.8143320818D+00  0.7278502735D+00
 P   1 1.00       0.000000000000
      0.2888754725D+00  0.1000000000D+01
 P   1 1.00       0.000000000000
      0.1005682367D+00  0.1000000000D+01
 D   1 1.00       0.000000000000
      0.1097000000D+01  0.1000000000D+01
 D   1 1.00       0.000000000000
      0.3180000000D+00  0.1000000000D+01
 F   1 1.00       0.000000000000
      0.7610000000D+00  0.1000000000D+01
 ****
     17 0
 S   3 1.00       0.000000000000
      0.3406134100D+02  0.2543930721D-01
      0.5123574600D+01  0.1900859489D+00
      0.1164662600D+01  0.8524411301D+00
 S   1 1.00       0.000000000000
      0.3272304100D+00  0.1000000000D+01
 S   1 1.00       0.000000000000
      0.1030724100D+00  0.1000000000D+01
 P   1 1.00       0.000000000000
      0.8000000000D+00  0.1000000000D+01
 ****
     18 0
 S   6 1.00       0.000000000000
      0.1357534968D+05  0.6064550360D-03
      0.2035233368D+04  0.4697908888D-02
      0.4632256236D+03  0.2433247765D-01
      0.1312001960D+03  0.9739996831D-01
      0.4285301589D+02  0.3019558425D+00
      0.1558418577D+02  0.6623360914D+00
 S   2 1.00       0.000000000000
      0.6206713851D+01  0.6559530854D+00
      0.2576489653D+01  0.3758563329D+00
 S   1 1.00       0.000000000000
      0.5769633942D+00  0.1000000000D+01
 S   1 1.00       0.000000000000
      0.2297283136D+00  0.1000000000D+01
 S   1 1.00       0.000000000000
      0.9516444003D-01  0.1000000000D+01
 P   4 1.00       0.000000000000
      0.3469723224D+02  0.1132722000D-01
      0.7958262283D+01  0.7616965920D-01
      0.2378082688D+01  0.3019225220D+00
      0.8143320818D+00  0.7278502735D+00
 P   1 1.00       0.000000000000
      0.2888754725D+00  0.1000000000D+01
 P   1 1.00       0.000000000000
      0.1005682367D+00  0.1000000000D+01
 D   1 1.00       0.000000000000
      0.1097000000D+01  0.1000000000D+01
 D   1 1.00       0.000000000000
      0.3180000000D+00  0.1000000000D+01
 F   1 1.00       0.000000000000
      0.7610000000D+00  0.1000000000D+01
 ****
     19 0
 S   3 1.00       0.000000000000
      0.3406134100D+02  0.2543930721D-01
      0.5123574600D+01  0.1900859489D+00
      0.1164662600D+01  0.8524411301D+00
 S   1 1.00       0.000000000000
      0.3272304100D+00  0.1000000000D+01
 S   1 1.00       0.000000000000
      0.1030724100D+00  0.1000000000D+01
 P   1 1.00       0.000000000000
      0.8000000000D+00  0.1000000000D+01
 ****
     20 0
 S   6 1.00       0.000000000000
      0.1357534968D+05  0.6064550360D-03
      0.2035233368D+04  0.4697908888D-02
      0.4632256236D+03  0.2433247765D-01
      0.1312001960D+03  0.9739996831D-01
      0.4285301589D+02  0.3019558425D+00
      0.1558418577D+02  0.6623360914D+00
 S   2 1.00       0.000000000000
      0.6206713851D+01  0.6559530854D+00
      0.2576489653D+01  0.3758563329D+00
 S   1 1.00       0.000000000000
      0.5769633942D+00  0.1000000000D+01
 S   1 1.00       0.000000000000
      0.2297283136D+00  0.1000000000D+01
 S   1 1.00       0.000000000000
      0.9516444003D-01  0.1000000000D+01
 P   4 1.00       0.000000000000
      0.3469723224D+02  0.1132722000D-01
      0.7958262283D+01  0.7616965920D-01
      0.2378082688D+01  0.3019225220D+00
      0.8143320818D+00  0.7278502735D+00
 P   1 1.00       0.000000000000
      0.2888754725D+00  0.1000000000D+01
 P   1 1.00       0.000000000000
      0.1005682367D+00  0.1000000000D+01
 D   1 1.00       0.000000000000
      0.1097000000D+01  0.1000000000D+01
 D   1 1.00       0.000000000000
      0.3180000000D+00  0.1000000000D+01
 F   1 1.00       0.000000000000
      0.7610000000D+00  0.1000000000D+01
 ****
     21 0
 S   3 1.00       0.000000000000
      0.3406134100D+02  0.2543930721D-01
      0.5123574600D+01  0.1900859489D+00
      0.1164662600D+01  0.8524411301D+00
 S   1 1.00       0.000000000000
[...]
  Beta virt. eigenvalues --    5.45138   5.45577   5.45939   5.46430   5.47010
  Beta virt. eigenvalues --    5.48901   5.49395   5.49623   5.50508   5.52107
  Beta virt. eigenvalues --    5.52719   5.54398   5.54557   5.56067   5.56210
  Beta virt. eigenvalues --    5.56895   5.57072   5.58016   5.58096   5.58499
  Beta virt. eigenvalues --    5.58582   5.59912   5.61434   5.64872   5.65081
  Beta virt. eigenvalues --    5.71440   5.72135   5.72444   5.72477   5.73994
  Beta virt. eigenvalues --    5.74025   5.74687   5.75015   5.75563   5.76343
  Beta virt. eigenvalues --    5.79464   5.79792   5.80494   5.81082   5.85212
  Beta virt. eigenvalues --    5.85283   5.85925   5.85941   5.87941   5.88249
  Beta virt. eigenvalues --    5.88339   5.88597   5.90392   5.90488   5.91697
  Beta virt. eigenvalues --    5.92083   5.97799   5.97890   6.03589   6.04274
  Beta virt. eigenvalues --    6.05482   6.05506   6.06152   6.06529   6.19276
  Beta virt. eigenvalues --    6.20272   6.22285   6.22697   6.32739   6.33874
  Beta virt. eigenvalues --    6.36224   6.36242   6.36598   6.39284   6.40301
  Beta virt. eigenvalues --    6.41328   6.42525   6.43162   6.45572   6.45840
  Beta virt. eigenvalues --    6.50037   6.50969   6.54314   6.59631   6.62611
  Beta virt. eigenvalues --    6.62783   6.63623   6.63787   6.64805   6.65074
  Beta virt. eigenvalues --    6.66479   6.68634   6.70238   6.70459   6.73034
  Beta virt. eigenvalues --    6.73100   6.76371   6.77613   6.77876   6.77951
  Beta virt. eigenvalues --    6.79613   6.79974   6.82984   6.82996   6.83919
  Beta virt. eigenvalues --    6.84510   6.85663   6.87471   6.88664   6.88930
  Beta virt. eigenvalues --    6.90814   6.90936   7.09472   7.11103   7.15937
  Beta virt. eigenvalues --    7.15984   7.16979   7.17042   7.18650   7.19449
  Beta virt. eigenvalues --    7.21362   7.21389   7.26685   7.28833   7.30407
  Beta virt. eigenvalues --    7.30522   7.47540   7.47632   7.48337   7.48635
  Beta virt. eigenvalues --    7.86913   7.87920   8.02560   8.02731   8.05391
  Beta virt. eigenvalues --    8.05872  16.23530  16.23923  22.13691  22.14362
  Beta virt. eigenvalues --   22.17216  22.17943  22.26867  22.29012  22.34929
  Beta virt. eigenvalues --   22.34966  22.36642  22.36686  22.48532  22.49401
  Beta virt. eigenvalues --   22.51117  22.53041  22.53619  22.54062  22.55326
  Beta virt. eigenvalues --   22.55710  22.55863  22.55951  22.57291  22.57456
  Beta virt. eigenvalues --   22.57848  22.58420  22.59080  22.59090  22.61904
  Beta virt. eigenvalues --   22.61985  22.62379  22.62602  22.68363  22.68579
  Beta virt. eigenvalues --   22.69365  22.69541  22.70955  22.71025  22.73317
  Beta virt. eigenvalues --   22.73452  22.75675  22.75764  22.75849  22.75852
  Beta virt. eigenvalues --   22.77055  22.77077  22.78855  22.79181  22.81281
  Beta virt. eigenvalues --   22.81516  22.82105  22.82177  22.94809  22.95345
  Beta virt. eigenvalues --   22.95563  22.97794  22.99970  23.00154  23.01821
  Beta virt. eigenvalues --   23.02688  23.03443  23.05150  23.07516  23.07719
  Beta virt. eigenvalues --   23.10357  23.10515  23.13594  23.13872  23.13915
  Beta virt. eigenvalues --   23.14018  23.48481  23.48829  23.50747  23.50883
  Beta virt. eigenvalues --   29.03297  29.05991  32.71044  32.71939  32.82975
  Beta virt. eigenvalues --   32.83306  43.88959  43.89483  44.26537  44.29191
  Beta virt. eigenvalues --   44.31061  44.31342  44.44304  44.45125  44.46272
  Beta virt. eigenvalues --   44.46338  95.41971  95.42879
          Condensed to atoms (all electrons):
          Atomic-Atomic Spin Densities.
 Mulliken charges and spin densities:
               1          2
     1  Ru   0.435551   0.000000
     2  P    0.659296   0.000000
     3  O   -0.518243   0.000000
     4  O   -0.488558   0.000000
     5  O   -0.282652   0.000000
     6  O   -0.602769   0.000000
     7  N   -0.050707   0.000000
     8  O   -0.294301   0.000000
     9  N   -0.012440   0.000000
    10  C    0.045493   0.000000
    11  H    0.156608   0.000000
    12  C    0.367113   0.000000
    13  C    0.348921   0.000000
    14  C    0.292363   0.000000
    15  C    0.142457   0.000000
    16  C   -0.205709   0.000000
    17  H    0.164609   0.000000
    18  C   -0.100269   0.000000
    19  H    0.171926   0.000000
    20  C   -0.121848   0.000000
    21  H    0.137341   0.000000
    22  C   -0.233984   0.000000
    23  H    0.150918   0.000000
    24  C   -0.288888   0.000000
    25  H    0.162522   0.000000
    26  C   -0.115366   0.000000
    27  H    0.137298   0.000000
    28  C    0.131074   0.000000
    29  C   -0.070230   0.000000
    30  H    0.149409   0.000000
    31  C    0.293039   0.000000
    32  C   -0.155799   0.000000
    33  H    0.160832   0.000000
    34  C   -0.106498   0.000000
    35  H    0.133515   0.000000
    36  C   -0.253358   0.000000
    37  H    0.153621   0.000000
    38  C   -0.178173   0.000000
    39  C   -0.082473   0.000000
    40  H    0.211737   0.000000
    41  C   -0.296900   0.000000
    42  H    0.126565   0.000000
    43  C   -0.155188   0.000000
    44  H    0.168037   0.000000
    45  H    0.145820   0.000000
    46  C   -0.148737   0.000000
    47  H    0.136890   0.000000
    48  C   -0.165869   0.000000
    49  C   -0.151148   0.000000
    50  H    0.135776   0.000000
    51  C    0.140471   0.000000
    52  C   -0.225793   0.000000
    53  H    0.143921   0.000000
    54  H    0.148814   0.000000
    55  H    0.135901   0.000000
    56  C   -0.106711   0.000000
    57  H    0.138189   0.000000
    58  C   -0.103802   0.000000
    59  H    0.140471   0.000000
    60  C   -0.215896   0.000000
    61  H    0.139330   0.000000
    62  H    0.139448   0.000000
    63  H    0.148338   0.000000
    64  C   -0.164829   0.000000
    65  H    0.138327   0.000000
    66  C   -0.142836   0.000000
    67  H    0.142968   0.000000
    68  C   -0.282926   0.000000
    69  H    0.128725   0.000000
    70  C   -0.125755   0.000000
    71  H    0.191429   0.000000
    72  C   -0.095200   0.000000
    73  H    0.141331   0.000000
    74  C   -0.086264   0.000000
    75  H    0.157182   0.000000
    76  H    0.150603   0.000000
    77  C   -0.154213   0.000000
    78  H    0.139871   0.000000
    79  Ru   0.435628   0.000000
    80  P    0.659378   0.000000
    81  O   -0.518283   0.000000
    82  O   -0.488552   0.000000
    83  O   -0.282737   0.000000
    84  O   -0.602896   0.000000
    85  N   -0.050532   0.000000
    86  O   -0.294591   0.000000
    87  N   -0.012432   0.000000
    88  C    0.044825   0.000000
    89  H    0.156575   0.000000
    90  C    0.367528   0.000000
    91  C    0.350454   0.000000
    92  C    0.291800   0.000000
    93  C    0.142078   0.000000
    94  C   -0.205729   0.000000
    95  H    0.164604   0.000000
    96  C   -0.100197   0.000000
    97  H    0.171917   0.000000
    98  C   -0.121895   0.000000
    99  H    0.137341   0.000000
   100  C   -0.232877   0.000000
   101  H    0.150945   0.000000
   102  C   -0.288808   0.000000
   103  H    0.162524   0.000000
   104  C   -0.115342   0.000000
   105  H    0.137298   0.000000
   106  C    0.130898   0.000000
   107  C   -0.070217   0.000000
   108  H    0.149436   0.000000
   109  C    0.292103   0.000000
   110  C   -0.155740   0.000000
   111  H    0.160821   0.000000
   112  C   -0.106515   0.000000
   113  H    0.133511   0.000000
   114  C   -0.252928   0.000000
   115  H    0.153623   0.000000
   116  C   -0.178384   0.000000
   117  C   -0.082208   0.000000
   118  H    0.211821   0.000000
   119  C   -0.296298   0.000000
   120  H    0.126531   0.000000
   121  C   -0.155105   0.000000
   122  H    0.168036   0.000000
   123  H    0.145846   0.000000
   124  C   -0.148779   0.000000
   125  H    0.136885   0.000000
   126  C   -0.166173   0.000000
   127  C   -0.151323   0.000000
   128  H    0.135754   0.000000
   129  C    0.140614   0.000000
   130  C   -0.225796   0.000000
   131  H    0.143919   0.000000
   132  H    0.148825   0.000000
   133  H    0.136061   0.000000
   134  C   -0.106649   0.000000
   135  H    0.138185   0.000000
   136  C   -0.104369   0.000000
   137  H    0.140461   0.000000
   138  C   -0.215913   0.000000
   139  H    0.139332   0.000000
   140  H    0.139438   0.000000
   141  H    0.148335   0.000000
   142  C   -0.164883   0.000000
   143  H    0.138321   0.000000
   144  C   -0.142935   0.000000
   145  H    0.142826   0.000000
   146  C   -0.283047   0.000000
   147  H    0.128714   0.000000
   148  C   -0.125584   0.000000
   149  H    0.191474   0.000000
   150  C   -0.095188   0.000000
   151  H    0.141328   0.000000
   152  C   -0.086169   0.000000
   153  H    0.157120   0.000000
   154  H    0.150603   0.000000
   155  C   -0.154226   0.000000
   156  H    0.139869   0.000000
 Sum of Mulliken charges =   2.00000   0.00000
 Mulliken charges and spin densities with hydrogens summed into heavy atoms:
               1          2
     1  Ru   0.435551   0.000000
     2  P    0.659296   0.000000
     3  O   -0.518243   0.000000
     4  O   -0.488558   0.000000
     5  O   -0.282652   0.000000
     6  O   -0.602769   0.000000
     7  N   -0.050707   0.000000
     8  O   -0.294301   0.000000
     9  N   -0.012440   0.000000
    10  C    0.202101   0.000000
    12  C    0.367113   0.000000
    13  C    0.348921   0.000000
    14  C    0.292363   0.000000
    15  C    0.142457   0.000000
    16  C   -0.041099   0.000000
    18  C    0.071657   0.000000
    20  C    0.015493   0.000000
    22  C   -0.083066   0.000000
    24  C   -0.126366   0.000000
    26  C    0.021933   0.000000
    28  C    0.131074   0.000000
    29  C    0.079179   0.000000
    31  C    0.293039   0.000000
    32  C    0.005033   0.000000
    34  C    0.027017   0.000000
    36  C   -0.099737   0.000000
    38  C   -0.178173   0.000000
    39  C    0.129263   0.000000
    41  C   -0.170336   0.000000
    43  C    0.158668   0.000000
    46  C   -0.011847   0.000000
    48  C   -0.165869   0.000000
    49  C   -0.015372   0.000000
    51  C    0.140471   0.000000
    52  C    0.202844   0.000000
    56  C    0.031478   0.000000
    58  C    0.036669   0.000000
    60  C    0.211221   0.000000
    64  C   -0.026502   0.000000
    66  C    0.000131   0.000000
    68  C   -0.154201   0.000000
    70  C    0.065674   0.000000
    72  C    0.046131   0.000000
    74  C    0.221522   0.000000
    77  C   -0.014343   0.000000
    79  Ru   0.435628   0.000000
    80  P    0.659378   0.000000
    81  O   -0.518283   0.000000
    82  O   -0.488552   0.000000
    83  O   -0.282737   0.000000
    84  O   -0.602896   0.000000
    85  N   -0.050532   0.000000
    86  O   -0.294591   0.000000
    87  N   -0.012432   0.000000
    88  C    0.201400   0.000000
    90  C    0.367528   0.000000
    91  C    0.350454   0.000000
    92  C    0.291800   0.000000
    93  C    0.142078   0.000000
    94  C   -0.041125   0.000000
    96  C    0.071721   0.000000
    98  C    0.015446   0.000000
   100  C   -0.081932   0.000000
   102  C   -0.126284   0.000000
   104  C    0.021955   0.000000
   106  C    0.130898   0.000000
   107  C    0.079219   0.000000
   109  C    0.292103   0.000000
   110  C    0.005081   0.000000
   112  C    0.026996   0.000000
   114  C   -0.099305   0.000000
   116  C   -0.178384   0.000000
   117  C    0.129613   0.000000
   119  C   -0.169768   0.000000
   121  C    0.158776   0.000000
   124  C   -0.011895   0.000000
   126  C   -0.166173   0.000000
   127  C   -0.015569   0.000000
   129  C    0.140614   0.000000
   130  C    0.203009   0.000000
   134  C    0.031536   0.000000
   136  C    0.036091   0.000000
   138  C    0.211193   0.000000
   142  C   -0.026561   0.000000
   144  C   -0.000110   0.000000
   146  C   -0.154333   0.000000
   148  C    0.065891   0.000000
   150  C    0.046140   0.000000
   152  C    0.221554   0.000000
   155  C   -0.014357   0.000000
 Electronic spatial extent (au):  <R**2>=          75165.1041
 Charge=              2.0000 electrons
 Dipole moment (field-independent basis, Debye):
    X=              0.0139    Y=             -0.0100    Z=              0.0067  Tot=              0.0184
 Quadrupole moment (field-independent basis, Debye-Ang):
   XX=           -312.1997   YY=           -412.5562   ZZ=           -404.9866
   XY=             50.3700   XZ=            -42.3789   YZ=             10.6168
 Traceless Quadrupole moment (field-independent basis, Debye-Ang):
   XX=             64.3812   YY=            -35.9754   ZZ=            -28.4058
   XY=             50.3700   XZ=            -42.3789   YZ=             10.6168
 Octapole moment (field-independent basis, Debye-Ang**2):
  XXX=             -0.2448  YYY=             -0.2180  ZZZ=             -0.3500  XYY=              0.2171
  XXY=             -0.6766  XXZ=             -1.0864  XZZ=             -0.1267  YZZ=              0.0536
  YYZ=              0.1633  XYZ=             -0.0172
 Hexadecapole moment (field-independent basis, Debye-Ang**3):
 XXXX=         -56523.8754 YYYY=         -21623.5358 ZZZZ=         -12557.4268 XXXY=           1664.3060
 XXXZ=           -957.1062 YYYX=           1002.8984 YYYZ=            631.7573 ZZZX=            269.0429
 ZZZY=           -210.4179 XXYY=         -11253.3171 XXZZ=         -10624.0154 YYZZ=          -5270.3653
 XXYZ=            427.5433 YYXZ=           -252.2269 ZZXY=            264.2798
 N-N= 2.032575883491D+04 E-N=-5.132177808347D+04  KE= 4.484615015331D+03
 Leave Link  601 at Fri Apr 26 16:57:50 2024, MaxMem=  4294967296 cpu:             118.1 elap:               4.4
 (Enter /sw/linux/gaussian/g16/g16/l9999.exe)
 1\1\GINC-THINC517\SP\UB3LYP\def2TZVP\C72H66N4O10P2Ru2(2+)\SARKARA\26-A
 pr-2024\0\\#p ub3lyp/def2tzvp EmpiricalDispersion=GD3 gfinput gfoldpri
 nt scfcyc=1000 scf=xqc scrf=(pcm,Solvent=Acetonitrile)\\title\\2,1\Ru,
 0,-2.416645,0.004233,0.523067\P,0,-4.799137,1.039712,0.121405\O,0,-1.8
 1163,1.270905,-0.955297\O,0,-0.754328,-0.404579,0.938984\O,0,-3.961656
 ,-2.599985,-2.80433\O,0,-3.058374,-1.334893,-0.764605\N,0,-3.062941,-1
 .096704,2.104892\O,0,-0.72418,2.297181,-3.05837\N,0,-2.191824,1.469787
 ,1.939946\C,0,-3.628292,-2.255498,2.043995\H,0,-3.902989,-2.747606,2.9
 80501\C,0,-0.99718,2.245706,-0.721132\C,0,-3.703034,-2.450275,-0.48107
 \C,0,-4.189512,-3.18667,-1.608205\C,0,-3.964382,-2.960419,0.828205\C,0
 ,-6.671852,-0.971906,-0.468098\H,0,-6.482856,-0.736383,-1.510362\C,0,-
 6.318185,2.745324,1.846319\H,0,-7.046219,1.94827,1.95114\C,0,-7.77477,
 -2.3407,1.197611\H,0,-8.443613,-3.158153,1.449678\C,0,0.597158,3.83929
 2,-1.722224\H,0,1.091207,4.257921,-2.591618\C,0,-6.303408,-0.550362,1.
 888361\H,0,-5.824992,0.010154,2.686532\C,0,-7.1681,-1.594102,2.212124\
 H,0,-7.368531,-1.826074,3.254422\C,0,-6.056353,-0.218072,0.543696\C,0,
 -1.356419,2.44627,1.791301\H,0,-1.129401,3.055457,2.670613\C,0,-0.3396
 21,2.825925,-1.874143\C,0,-6.011853,2.462507,-1.968552\H,0,-6.558888,2
 .983396,-1.188932\C,0,-7.522697,-2.02825,-0.138874\H,0,-7.991387,-2.60
 5116,-0.930401\C,0,-4.836786,-4.407544,-1.425769\H,0,-5.187761,-4.9727
 68,-2.281033\C,0,-5.184159,2.572611,1.038888\C,0,-4.358035,0.816206,-2
 .654094\H,0,-3.625937,0.057637,-2.414197\C,0,-4.642314,-4.189765,0.973
 083\H,0,-4.845877,-4.565356,1.971785\C,0,-2.802036,1.084307,3.212571\H
 ,0,-3.856879,1.382878,3.189602\H,0,-2.321135,1.592396,4.056444\C,0,-6.
 253279,2.776487,-3.304977\H,0,-6.988195,3.536131,-3.554592\C,0,-5.0647
 5,1.477642,-1.636021\C,0,-4.610548,1.138419,-3.988568\H,0,-4.059884,0.
 62567,-4.772569\C,0,-0.694756,2.821014,0.570062\C,0,-0.284784,2.930621
 ,-4.253378\H,0,-0.565811,3.991112,-4.271319\H,0,-0.785691,2.406635,-5.
 068265\H,0,0.80372,2.844078,-4.380857\C,0,-5.552351,2.115085,-4.317191
 \H,0,-5.741455,2.363167,-5.357858\C,0,-5.058639,-4.908509,-0.135064\H,
 0,-5.57319,-5.855665,-0.010721\C,0,-4.512387,-3.199953,-3.975413\H,0,-
 5.602182,-3.298854,-3.896326\H,0,-4.067143,-4.183915,-4.16838\H,0,-4.2
 6775,-2.522701,-4.794179\C,0,-4.503888,4.851535,1.532002\H,0,-3.80643,
 5.672971,1.394479\C,0,0.916155,4.344355,-0.447835\H,0,1.661278,5.12675
 2,-0.352939\C,0,0.265194,3.858162,0.668579\H,0,0.490558,4.271164,1.648
 07\C,0,-4.283491,3.641575,0.878515\H,0,-3.42194,3.531512,0.226769\C,0,
 -5.623895,5.0101,2.354676\H,0,-5.795434,5.953356,2.864806\C,0,-2.68185
 5,-0.446659,3.368824\H,0,-1.631808,-0.70449,3.551248\H,0,-3.296346,-0.
 800754,4.204725\C,0,-6.530598,3.959765,2.504522\H,0,-7.413497,4.085676
 ,3.124286\Ru,0,2.417036,-0.006165,-0.526128\P,0,4.800151,-1.038641,-0.
 118691\O,0,1.811514,-1.272024,0.952842\O,0,0.754925,0.400806,-0.944986
 \O,0,3.951087,2.604861,2.801115\O,0,3.054983,1.335197,0.761112\N,0,3.0
 65513,1.093167,-2.108072\O,0,0.722526,-2.297742,3.05574\N,0,2.196142,-
 1.473714,-1.94143\C,0,3.630318,2.25227,-2.04756\H,0,3.906987,2.743114,
 -2.984144\C,0,0.998127,-2.247682,0.718621\C,0,3.699125,2.450811,0.4773
 97\C,0,4.181841,3.189606,1.60457\C,0,3.963242,2.959135,-0.832038\C,0,6
 .669897,0.975549,0.471529\H,0,6.479159,0.741313,1.513764\C,0,6.324003,
 -2.745317,-1.838351\H,0,7.051579,-1.9478,-1.942836\C,0,7.774746,2.3429
 77,-1.194027\H,0,8.443325,3.16068,-1.445982\C,0,-0.596601,-3.841247,1.
 71904\H,0,-1.091452,-4.259395,2.588219\C,0,6.306377,0.55028,-1.885021\
 H,0,5.830015,-0.011831,-2.683302\C,0,7.170728,1.594357,-2.208628\H,0,7
 .372955,1.825009,-3.250873\C,0,6.057047,0.219679,-0.540361\C,0,1.36126
 3,-2.450706,-1.793004\H,0,1.136329,-3.061238,-2.67192\C,0,0.339622,-2.
 827434,1.871289\C,0,6.010614,-2.457255,1.975432\H,0,6.559701,-2.978538
 ,1.197517\C,0,7.520383,2.032217,0.142424\H,0,7.98702,2.610656,0.934017
 \C,0,4.828531,4.41074,1.421809\H,0,5.176717,4.97772,2.27705\C,0,5.1882
 78,-2.572464,-1.033342\C,0,4.353633,-0.811968,2.655708\H,0,3.621112,-0
 .054567,2.413428\C,0,4.640493,4.188816,-0.977178\H,0,4.846231,4.562997
 ,-1.975962\C,0,2.808617,-1.089597,-3.213383\H,0,3.86359,-1.387493,-3.1
 87936\H,0,2.329692,-1.599124,-4.057513\C,0,6.249876,-2.769233,3.312715
 \H,0,6.985188,-3.52771,3.564703\C,0,5.063013,-1.473915,1.639829\C,0,4.
 603989,-1.132163,3.991077\H,0,4.051284,-0.619002,4.773374\C,0,0.697737
 ,-2.824358,-0.572438\C,0,0.286011,-2.933657,4.250555\H,0,0.569259,-3.9
 93577,4.266642\H,0,0.786956,-2.409698,5.065441\H,0,-0.802472,-2.849549
 ,4.379743\C,0,5.546281,-2.107324,4.322748\H,0,5.733714,-2.353834,5.364
 091\C,0,5.053363,4.909734,0.130852\H,0,5.567435,5.857118,0.006272\C,0,
 4.49849,3.20711,3.972585\H,0,5.588416,3.306578,3.896084\H,0,4.052155,4
 .191116,4.162814\H,0,4.25222,2.531069,4.791864\C,0,4.51085,-4.852611,-
 1.524729\H,0,3.81381,-5.674445,-1.387461\C,0,-0.914055,-4.34731,0.4446
 62\H,0,-1.658846,-5.129992,0.349495\C,0,-0.261756,-3.861905,-0.671323\
 H,0,-0.485534,-4.275978,-1.650728\C,0,4.288188,-3.641964,-0.873284\H,0
 ,3.425301,-3.531749,-0.223338\C,0,5.632574,-5.011344,-2.345028\H,0,5.8
 05871,-5.955135,-2.853573\C,0,2.68785,0.441094,-3.37198\H,0,1.638102,0
 .698042,-3.557344\H,0,3.304069,0.794426,-4.20693\C,0,6.538695,-3.96045
 9,-2.494523\H,0,7.422892,-4.08646,-3.112415\\Version=ES64L-G16RevB.01\
 State=1-A\HF=-4628.6824286\S2=0.\S2-1=0.\S2A=0.\RMSD=4.410e-09\Dipole=
 0.0054754,-0.0039437,0.002643\Quadrupole=47.8658131,-26.7468221,-21.11
 89911,37.4488228,-31.5077009,7.8933613\PG=C01 [X(C72H66N4O10P2Ru2)]\\@


 BUT 'GLORY' DOESN'T MEAN 'A NICE KNOCK DOWN ARGUMENT', ALICE OBJECTED.
 WHEN I USE A WORD, HUMPTY DUMPTY SAID, IN A RATHER SCORNFUL TONE,
 IT MEANS JUST WHAT I CHOOSE IT TO MEAN....
 NEITHER MORE NOR LESS....
 THE QUESTION IS, SAID ALICE,
 WHETHER YOU CAN MAKE WORDS MEAN SO MANY DIFFERENT THINGS...
 THE QUESTION IS, SAID HUMPTY DUMPTY,
 WHICH IS TO BE MASTER....
 THAT IS ALL.....

 ALICE THROUGH THE LOOKING GLASS
 Job cpu time:       9 days  0 hours 25 minutes 19.8 seconds.
 Elapsed time:       0 days  6 hours 46 minutes 45.0 seconds.
 File lengths (MBytes):  RWF=  10932 Int=      0 D2E=      0 Chk=    716 Scr=      1
 Normal termination of Gaussian 16 at Fri Apr 26 16:57:56 2024.
